 vasp.6.3.1 04May22 (build Jul 26 2022 04:02:40) complex                        
  
 executed on             LinuxIFC date 2023.11.30  03:37:02
 running on   48 total cores
 distrk:  each k-point on   48 cores,    1 groups
 distr:  one band on NCORE=  12 cores,    4 groups


--------------------------------------------------------------------------------------------------------


 INCAR:
   ISTART = 0
   NWRITE = 2
   PREC = Accurate
   ENCUT = 250
   GGA = PE
   NSW = 0
   ISIF = 2
   ISYM = 2
   NBLOCK = 1
   KBLOCK = 1
   IBRION = -1
   NELM = 80
   EDIFF = 1E-08
   EDIFFG = -0.01
   ALGO = Normal
   LDIAG = .TRUE.
   LREAL = .FALSE.
   ISMEAR = 0
   SIGMA = 0.02
   ICHARG = 2
   LPLANE = .TRUE.
   NPAR = 4
   LSCALU = .FALSE.
   NSIM = 4
   LWAVE = .FALSE.
   LCHARG = .FALSE.
   ICORELEVEL = 1

 POTCAR:    PAW_PBE Nb_sv 25May2007               
 POTCAR:    PAW_PBE Mo_sv 02Feb2006               
 POTCAR:    PAW_PBE Ta_pv 07Sep2000               
 POTCAR:    PAW_PBE W_sv 04Sep2015                
 POTCAR:    PAW_PBE Nb_sv 25May2007               
   SHA256 =  0e8fc07c9fcd1164cf2ade22d0399fd28f85e91cd773dfa6cf24839a48c95e24 Nb_sv/POTCAR          
   COPYR  = (c) Copyright 25May2007 Georg Kresse                                                    
   COPYR  = This file is part of the software VASP. Any use, copying, and all other rights are regul
   COPYR  = If you do not have a valid VASP license, you may not use, copy or distribute this file. 
   VRHFIN =Nb: 4p5s4d                                                                               
   LEXCH  = PE                                                                                      
   EATOM  =  1555.1913 eV,  114.3033 Ry                                                             
                                                                                                    
   TITEL  = PAW_PBE Nb_sv 25May2007                                                                 
   LULTRA =        F    use ultrasoft PP ?                                                          
   IUNSCR =        1    unscreen: 0-lin 1-nonlin 2-no                                               
   RPACOR =    1.800    partial core radius                                                         
   POMASS =   92.910; ZVAL   =   13.000    mass and valenz                                          
   RCORE  =    2.400    outmost cutoff radius                                                       
   RWIGS  =    2.400; RWIGS  =    1.270    wigner-seitz radius (au A)                               
   ENMAX  =  293.235; ENMIN  =  219.927 eV                                                          
   ICORE  =        3    local potential                                                             
   LCOR   =        T    correct aug charges                                                         
   LPAW   =        T    paw PP                                                                      
   EAUG   =  455.659                                                                                
   DEXC   =    0.000                                                                                
   RMAX   =    2.456    core radius for proj-oper                                                   
   RAUG   =    1.300    factor for augmentation sphere                                              
   RDEP   =    2.451    radius for radial grids                                                     
   RDEPT  =    1.956    core radius for aug-charge                                                  
                                                                                                    
   Atomic configuration                                                                             
   11 entries                                                                                       
     n  l   j            E        occ.                                                              
     1  0  0.50    -18805.2457   2.0000                                                             
     2  0  0.50     -2630.2869   2.0000                                                             
     2  1  1.50     -2348.4046   6.0000                                                             
     3  0  0.50      -438.8757   2.0000                                                             
     3  1  1.50      -346.7588   6.0000                                                             
     3  2  2.50      -196.2560  10.0000                                                             
     4  0  0.50       -58.3859   2.0000                                                             
     5  0  0.50        -3.9816   1.0000                                                             
     4  1  1.50       -34.5141   6.0000                                                             
     4  2  2.50        -3.0408   4.0000                                                             
     4  3  2.50        -1.3606   0.0000                                                             
   Description                                                                                      
     l       E           TYP  RCUT    TYP  RCUT                                                     
     0    -58.3859094     23  2.200                                                                 
     0     -3.9816262     23  2.200                                                                 
     1    -34.5140738     23  2.200                                                                 
     1     13.6058260     23  2.200                                                                 
     2     -3.0408010     23  2.200                                                                 
     2     -0.1283038     23  2.200                                                                 
     3     -1.3605826     23  2.400                                                                 
  local pseudopotential read in
  partial core-charges read in
  partial kinetic energy density read in
  atomic valenz-charges read in
  non local Contribution for L=           0  read in
    real space projection operators read in
  non local Contribution for L=           0  read in
    real space projection operators read in
  non local Contribution for L=           1  read in
    real space projection operators read in
  non local Contribution for L=           1  read in
    real space projection operators read in
  non local Contribution for L=           2  read in
    real space projection operators read in
  non local Contribution for L=           2  read in
    real space projection operators read in
    PAW grid and wavefunctions read in
 
   number of l-projection  operators is LMAX  =           6
   number of lm-projection operators is LMMAX =          18
 
 POTCAR:    PAW_PBE Mo_sv 02Feb2006               
   SHA256 =  2731df97e41766cc617548c5a8267718fdef1f509ac6bafa01e745abea2bdfaa Mo_sv/POTCAR          
   COPYR  = (c) Copyright 02Feb2006 Georg Kresse                                                    
   COPYR  = This file is part of the software VASP. Any use, copying, and all other rights are regul
   COPYR  = If you do not have a valid VASP license, you may not use, copy or distribute this file. 
   VRHFIN =Mo: 4p5s4d                                                                               
   LEXCH  = PE                                                                                      
   EATOM  =  1862.2866 eV,  136.8742 Ry                                                             
                                                                                                    
   TITEL  = PAW_PBE Mo_sv 02Feb2006                                                                 
   LULTRA =        F    use ultrasoft PP ?                                                          
   IUNSCR =        1    unscreen: 0-lin 1-nonlin 2-no                                               
   RPACOR =    2.200    partial core radius                                                         
   POMASS =   95.940; ZVAL   =   14.000    mass and valenz                                          
   RCORE  =    2.500    outmost cutoff radius                                                       
   RWIGS  =    2.750; RWIGS  =    1.455    wigner-seitz radius (au A)                               
   ENMAX  =  242.676; ENMIN  =  182.007 eV                                                          
   ICORE  =        3    local potential                                                             
   LCOR   =        T    correct aug charges                                                         
   LPAW   =        T    paw PP                                                                      
   EAUG   =  446.014                                                                                
   DEXC   =    0.000                                                                                
   RMAX   =    2.563    core radius for proj-oper                                                   
   RAUG   =    1.300    factor for augmentation sphere                                              
   RDEP   =    2.641    radius for radial grids                                                     
   RDEPT  =    2.031    core radius for aug-charge                                                  
                                                                                                    
   Atomic configuration                                                                             
   11 entries                                                                                       
     n  l   j            E        occ.                                                              
     1  0  0.50    -19819.0341   2.0000                                                             
     2  0  0.50     -2799.0127   2.0000                                                             
     2  1  1.50     -2502.0276   6.0000                                                             
     3  0  0.50      -476.4449   2.0000                                                             
     3  1  1.50      -379.1496   6.0000                                                             
     3  2  2.50      -220.9367  10.0000                                                             
     4  0  0.50       -64.3378   2.0000                                                             
     5  0  0.50        -4.0862   1.0000                                                             
     4  1  1.50       -38.4773   6.0000                                                             
     4  2  2.50        -3.7535   5.0000                                                             
     4  3  2.50        -1.3606   0.0000                                                             
   Description                                                                                      
     l       E           TYP  RCUT    TYP  RCUT                                                     
     0    -64.3377829     23  2.100                                                                 
     0     -4.0861640     23  2.400                                                                 
     1    -38.4772993     23  2.100                                                                 
     1     13.6058260     23  2.100                                                                 
     2     -3.7534941     23  2.400                                                                 
     2     -5.1140767     23  2.400                                                                 
     3     -4.0817478     23  2.500                                                                 
  local pseudopotential read in
  partial core-charges read in
  partial kinetic energy density read in
  atomic valenz-charges read in
  non local Contribution for L=           0  read in
    real space projection operators read in
  non local Contribution for L=           0  read in
    real space projection operators read in
  non local Contribution for L=           1  read in
    real space projection operators read in
  non local Contribution for L=           1  read in
    real space projection operators read in
  non local Contribution for L=           2  read in
    real space projection operators read in
  non local Contribution for L=           2  read in
    real space projection operators read in
    PAW grid and wavefunctions read in
 
   number of l-projection  operators is LMAX  =           6
   number of lm-projection operators is LMMAX =          18
 
 POTCAR:    PAW_PBE Ta_pv 07Sep2000               
   SHA256 =  00d0a14a36c127416459414afb8617d9754996fffa60a2465888e660b20a452f Ta_pv/POTCAR          
   COPYR  = (c) Copyright 07Sep2000 Georg Kresse                                                    
   COPYR  = This file is part of the software VASP. Any use, copying, and all other rights are regul
   COPYR  = If you do not have a valid VASP license, you may not use, copy or distribute this file. 
   VRHFIN =Ta:  5p6s5d                                                                              
   LEXCH  = PE                                                                                      
   EATOM  =  1047.1984 eV,   76.9669 Ry                                                             
                                                                                                    
   TITEL  = PAW_PBE Ta_pv 07Sep2000                                                                 
   LULTRA =        F    use ultrasoft PP ?                                                          
   IUNSCR =        1    unscreen: 0-lin 1-nonlin 2-no                                               
   RPACOR =    2.330    partial core radius                                                         
   POMASS =  180.948; ZVAL   =   11.000    mass and valenz                                          
   RCORE  =    2.500    outmost cutoff radius                                                       
   RWIGS  =    2.840; RWIGS  =    1.503    wigner-seitz radius (au A)                               
   ENMAX  =  223.667; ENMIN  =  167.750 eV                                                          
   RCLOC  =    2.205    cutoff for local pot                                                        
   LCOR   =        T    correct aug charges                                                         
   LPAW   =        T    paw PP                                                                      
   EAUG   =  377.421                                                                                
   DEXC   =    0.000                                                                                
   RMAX   =    2.551    core radius for proj-oper                                                   
   RAUG   =    1.300    factor for augmentation sphere                                              
   RDEP   =    2.526    radius for radial grids                                                     
   RDEPT  =    2.132    core radius for aug-charge                                                  
                                                                                                    
   Atomic configuration                                                                             
   15 entries                                                                                       
     n  l   j            E        occ.                                                              
     1  0  0.50    -67341.2801   2.0000                                                             
     2  0  0.50    -11566.9369   2.0000                                                             
     2  1  1.50    -10134.1175   6.0000                                                             
     3  0  0.50     -2648.5614   2.0000                                                             
     3  1  1.50     -2222.6006   6.0000                                                             
     3  2  2.50     -1726.3114  10.0000                                                             
     4  0  0.50      -538.6957   2.0000                                                             
     4  1  1.50      -399.0125   6.0000                                                             
     4  2  2.50      -220.3955  10.0000                                                             
     4  3  3.50       -23.0371  14.0000                                                             
     5  0  0.50       -71.2900   2.0000                                                             
     5  1  1.50       -37.8224   6.0000                                                             
     5  2  2.50        -2.6455   4.0000                                                             
     6  0  0.50        -4.9623   1.0000                                                             
     5  3  2.50        -1.3606   0.0000                                                             
   Description                                                                                      
     l       E           TYP  RCUT    TYP  RCUT                                                     
     1    -37.8224449     23  2.500                                                                 
     1      1.3605826     23  2.500                                                                 
     2     -2.6454718     23  2.500                                                                 
     2     -0.6258570     23  2.500                                                                 
     0     -4.9622674     23  2.500                                                                 
     0      4.7531427     23  2.500                                                                 
  local pseudopotential read in
  partial core-charges read in
  partial kinetic energy density read in
  atomic valenz-charges read in
  non local Contribution for L=           1  read in
    real space projection operators read in
  non local Contribution for L=           1  read in
    real space projection operators read in
  non local Contribution for L=           2  read in
    real space projection operators read in
  non local Contribution for L=           2  read in
    real space projection operators read in
  non local Contribution for L=           0  read in
    real space projection operators read in
  non local Contribution for L=           0  read in
    real space projection operators read in
    PAW grid and wavefunctions read in
 
   number of l-projection  operators is LMAX  =           6
   number of lm-projection operators is LMMAX =          18
 
 POTCAR:    PAW_PBE W_sv 04Sep2015                
   SHA256 =  931c2d770f65867ef30f3db3421922900fc0890ebac5c3e12f63b6a2064023d7 W_sv/POTCAR           
   COPYR  = (c) Copyright 04Sep2015 Georg Kresse                                                    
   COPYR  = This file is part of the software VASP. Any use, copying, and all other rights are regul
   COPYR  = If you do not have a valid VASP license, you may not use, copy or distribute this file. 
   VRHFIN =W : 5p6s5d                                                                               
   LEXCH  = PE                                                                                      
   EATOM  =  1865.5791 eV,  137.1162 Ry                                                             
                                                                                                    
   TITEL  = PAW_PBE W_sv 04Sep2015                                                                  
   LULTRA =        F    use ultrasoft PP ?                                                          
   IUNSCR =        1    unscreen: 0-lin 1-nonlin 2-no                                               
   RPACOR =    2.330    partial core radius                                                         
   POMASS =  183.850; ZVAL   =   14.000    mass and valenz                                          
   RCORE  =    2.500    outmost cutoff radius                                                       
   RWIGS  =    2.750; RWIGS  =    1.455    wigner-seitz radius (au A)                               
   ENMAX  =  223.057; ENMIN  =  167.293 eV                                                          
   ICORE  =        3    local potential                                                             
   LCOR   =        T    correct aug charges                                                         
   LPAW   =        T    paw PP                                                                      
   EAUG   =  373.438                                                                                
   DEXC   =    0.000                                                                                
   RMAX   =    2.565    core radius for proj-oper                                                   
   RAUG   =    1.300    factor for augmentation sphere                                              
   RDEP   =    2.539    radius for radial grids                                                     
   RDEPT  =    2.126    core radius for aug-charge                                                  
                                                                                                    
   Atomic configuration                                                                             
   15 entries                                                                                       
     n  l   j            E        occ.                                                              
     1  0  0.50    -69465.5834   2.0000                                                             
     2  0  0.50    -11986.2640   2.0000                                                             
     2  1  1.50    -10479.8613   6.0000                                                             
     3  0  0.50     -2759.0756   2.0000                                                             
     3  1  1.50     -2313.1855   6.0000                                                             
     3  2  2.50     -1801.1183  10.0000                                                             
     4  0  0.50      -567.6789   2.0000                                                             
     4  1  1.50      -421.4692   6.0000                                                             
     4  2  2.50      -236.3471  10.0000                                                             
     4  3  3.50       -31.2665  14.0000                                                             
     5  0  0.50       -77.1084   2.0000                                                             
     6  0  0.50        -5.1438   1.0000                                                             
     5  1  1.50       -41.3856   6.0000                                                             
     5  2  2.50        -3.3185   5.0000                                                             
     5  3  2.50        -1.3606   0.0000                                                             
   Description                                                                                      
     l       E           TYP  RCUT    TYP  RCUT                                                     
     0    -77.1084470     23  2.100                                                                 
     0     -5.1437956     23  2.300                                                                 
     1    -41.3855615     23  2.500                                                                 
     1     -2.7211652     23  2.500                                                                 
     2     -3.3185025     23  2.500                                                                 
     2     -1.5965151     23  2.500                                                                 
     3     -1.3605826     23  2.500                                                                 
  local pseudopotential read in
  partial core-charges read in
  partial kinetic energy density read in
  kinetic energy density of atom read in
  atomic valenz-charges read in
  non local Contribution for L=           0  read in
    real space projection operators read in
  non local Contribution for L=           0  read in
    real space projection operators read in
  non local Contribution for L=           1  read in
    real space projection operators read in
  non local Contribution for L=           1  read in
    real space projection operators read in
  non local Contribution for L=           2  read in
    real space projection operators read in
  non local Contribution for L=           2  read in
    real space projection operators read in
    PAW grid and wavefunctions read in
 
   number of l-projection  operators is LMAX  =           6
   number of lm-projection operators is LMMAX =          18
 
  PAW_PBE Nb_sv 25May2007               :
 energy of atom  1       EATOM=-1555.1913
 kinetic energy error for atom=    0.2155 (will be added to EATOM!!)
  PAW_PBE Mo_sv 02Feb2006               :
 energy of atom  2       EATOM=-1862.2866
 kinetic energy error for atom=    0.1102 (will be added to EATOM!!)
  PAW_PBE Ta_pv 07Sep2000               :
 energy of atom  3       EATOM=-1047.1984
 kinetic energy error for atom=    0.0394 (will be added to EATOM!!)
  PAW_PBE W_sv 04Sep2015                :
 energy of atom  4       EATOM=-1865.5791
 kinetic energy error for atom=    0.0589 (will be added to EATOM!!)
 
 
 POSCAR: Nb-Mo-Ta-W alloy
  positions in direct lattice
  No initial velocities read in
 exchange correlation table for  LEXCH =        8
   RHO(1)=    0.500       N(1)  =     2000
   RHO(2)=  100.500       N(2)  =     4000
 


--------------------------------------------------------------------------------------------------------


 ion  position               nearest neighbor table
   1  0.000  0.000  0.000-   4 2.85   5 2.85   6 2.85   7 2.85   9 2.85  12 2.85  15 2.85  16 2.85

   2  0.000  0.000  0.500-   4 2.85   5 2.85   6 2.85   7 2.85   9 2.85  12 2.85  15 2.85  16 2.85

   3  0.500  0.000  0.000-   4 2.85   5 2.85   6 2.85   7 2.85   9 2.85  12 2.85  15 2.85  16 2.85

   4  0.750  0.250  0.750-   1 2.85   2 2.85   3 2.85   8 2.85  10 2.85  11 2.85  13 2.85  14 2.85
                            12 3.29  12 3.29
   5  0.250  0.750  0.250-   1 2.85   2 2.85   3 2.85   8 2.85  10 2.85  11 2.85  13 2.85  14 2.85

   6  0.250  0.750  0.750-   1 2.85   2 2.85   3 2.85   8 2.85  10 2.85  11 2.85  13 2.85  14 2.85
                            12 3.29  12 3.29
   7  0.250  0.250  0.250-   1 2.85   2 2.85   3 2.85   8 2.85  10 2.85  11 2.85  13 2.85  14 2.85
                             9 3.29  12 3.29  12 3.29   9 3.29
   8  0.000  0.500  0.500-   4 2.85   5 2.85   6 2.85   7 2.85   9 2.85  12 2.85  15 2.85  16 2.85
                            10 3.29  13 3.29  13 3.29  10 3.29
   9  0.750  0.250  0.250-   1 2.85   2 2.85   3 2.85   8 2.85  10 2.85  11 2.85  13 2.85  14 2.85
                             7 3.29  15 3.29  15 3.29   7 3.29
  10  0.500  0.500  0.500-   4 2.85   5 2.85   6 2.85   7 2.85   9 2.85  12 2.85  15 2.85  16 2.85
                            14 3.29  11 3.29   8 3.29  14 3.29  11 3.29   8 3.29
  11  0.500  0.000  0.500-   4 2.85   5 2.85   6 2.85   7 2.85   9 2.85  12 2.85  15 2.85  16 2.85
                            10 3.29  10 3.29
  12  0.250  0.250  0.750-   1 2.85   2 2.85   3 2.85   8 2.85  10 2.85  11 2.85  13 2.85  14 2.85
                             7 3.29   4 3.29   6 3.29   7 3.29   6 3.29   4 3.29
  13  0.000  0.500  0.000-   4 2.85   5 2.85   6 2.85   7 2.85   9 2.85  12 2.85  15 2.85  16 2.85
                             8 3.29  14 3.29   8 3.29  14 3.29
  14  0.500  0.500  0.000-   4 2.85   5 2.85   6 2.85   7 2.85   9 2.85  12 2.85  15 2.85  16 2.85
                            10 3.29  13 3.29  10 3.29  13 3.29
  15  0.750  0.750  0.250-   1 2.85   2 2.85   3 2.85   8 2.85  10 2.85  11 2.85  13 2.85  14 2.85
                             9 3.29  16 3.29  16 3.29   9 3.29
  16  0.750  0.750  0.750-   1 2.85   2 2.85   3 2.85   8 2.85  10 2.85  11 2.85  13 2.85  14 2.85
                            15 3.29  15 3.29
 
  LATTYP: Found a simple cubic cell.
 ALAT       =     6.5800000000
  
  Lattice vectors:
  
 A1 = (   6.5800000000,   0.0000000000,   0.0000000000)
 A2 = (   0.0000000000,   6.5800000000,   0.0000000000)
 A3 = (   0.0000000000,   0.0000000000,   6.5800000000)


Analysis of symmetry for initial positions (statically):
=====================================================================
 Subroutine PRICEL returns:
 Original cell was already a primitive cell.
 

 Routine SETGRP: Setting up the symmetry group for a 
 simple cubic supercell.


 Subroutine GETGRP returns: Found  1 space group operations
 (whereof  1 operations were pure point group operations)
 out of a pool of 48 trial point group operations.


The static configuration has the point symmetry C_1 .


Analysis of symmetry for dynamics (positions and initial velocities):
=====================================================================
 Subroutine PRICEL returns:
 Original cell was already a primitive cell.
 

 Routine SETGRP: Setting up the symmetry group for a 
 simple cubic supercell.


 Subroutine GETGRP returns: Found  1 space group operations
 (whereof  1 operations were pure point group operations)
 out of a pool of 48 trial point group operations.


The dynamic configuration has the point symmetry C_1 .


 Subroutine INISYM returns: Found  1 space group operations
 (whereof  1 operations are pure point group operations),
 and found     1 'primitive' translations


----------------------------------------------------------------------------------------

                                     Primitive cell                                     

  volume of cell :     284.8903

  direct lattice vectors                    reciprocal lattice vectors
     6.580000000  0.000000000  0.000000000     0.151975684  0.000000000  0.000000000
     0.000000000  6.580000000  0.000000000     0.000000000  0.151975684  0.000000000
     0.000000000  0.000000000  6.580000000     0.000000000  0.000000000  0.151975684

  length of vectors
     6.580000000  6.580000000  6.580000000     0.151975684  0.151975684  0.151975684

  position of ions in fractional coordinates (direct lattice)
     0.000000000  0.000000000  0.000000000
     0.000000000  0.000000000  0.500000000
     0.500000000  0.000000000  0.000000000
     0.750000000  0.250000000  0.750000000
     0.250000000  0.750000000  0.250000000
     0.250000000  0.750000000  0.750000000
     0.250000000  0.250000000  0.250000000
     0.000000000  0.500000000  0.500000000
     0.750000000  0.250000000  0.250000000
     0.500000000  0.500000000  0.500000000
     0.500000000  0.000000000  0.500000000
     0.250000000  0.250000000  0.750000000
     0.000000000  0.500000000  0.000000000
     0.500000000  0.500000000  0.000000000
     0.750000000  0.750000000  0.250000000
     0.750000000  0.750000000  0.750000000

  ion indices of the primitive-cell ions
   primitive index   ion index
                 1           1
                 2           2
                 3           3
                 4           4
                 5           5
                 6           6
                 7           7
                 8           8
                 9           9
                10          10
                11          11
                12          12
                13          13
                14          14
                15          15
                16          16

----------------------------------------------------------------------------------------

 
 
 KPOINTS: K-Spacing Value to Generate K-Mesh: 0.03

Automatic generation of k-mesh.
 Grid dimensions read from file:
 generate k-points for:    5    5    5

 Generating k-lattice:

  Cartesian coordinates                     Fractional coordinates (reciprocal lattice)
     0.030395137  0.000000000  0.000000000     0.200000000  0.000000000  0.000000000
     0.000000000  0.030395137  0.000000000     0.000000000  0.200000000  0.000000000
     0.000000000  0.000000000  0.030395137     0.000000000  0.000000000  0.200000000

  Length of vectors
     0.030395137  0.030395137  0.030395137

  Shift w.r.t. Gamma in fractional coordinates (k-lattice)
     0.000000000  0.000000000  0.000000000

 
 Subroutine IBZKPT returns following result:
 ===========================================
 
 Found     63 irreducible k-points:
 
 Following reciprocal coordinates:
            Coordinates               Weight
  0.000000  0.000000  0.000000      1.000000
  0.200000  0.000000  0.000000      2.000000
  0.000000  0.200000  0.000000      2.000000
  0.000000  0.000000  0.200000      2.000000
  0.400000  0.000000  0.000000      2.000000
  0.000000  0.400000  0.000000      2.000000
  0.000000  0.000000  0.400000      2.000000
  0.200000  0.200000  0.000000      2.000000
  0.000000  0.200000  0.200000      2.000000
  0.200000  0.000000  0.200000      2.000000
 -0.200000  0.200000  0.000000      2.000000
 -0.200000  0.000000  0.200000      2.000000
  0.000000 -0.200000  0.200000      2.000000
  0.400000  0.200000  0.000000      2.000000
  0.000000  0.400000  0.200000      2.000000
  0.200000  0.000000  0.400000      2.000000
 -0.200000  0.400000  0.000000      2.000000
 -0.400000  0.000000  0.200000      2.000000
  0.000000  0.200000  0.400000      2.000000
  0.000000 -0.400000  0.200000      2.000000
 -0.200000  0.000000  0.400000      2.000000
  0.400000  0.000000  0.200000      2.000000
  0.000000 -0.200000  0.400000      2.000000
  0.400000 -0.200000  0.000000      2.000000
  0.200000  0.400000  0.000000      2.000000
  0.400000  0.400000  0.000000      2.000000
  0.000000  0.400000  0.400000      2.000000
  0.400000  0.000000  0.400000      2.000000
 -0.400000  0.400000  0.000000      2.000000
 -0.400000  0.000000  0.400000      2.000000
  0.000000 -0.400000  0.400000      2.000000
  0.200000  0.200000  0.200000      2.000000
 -0.200000  0.200000  0.200000      2.000000
 -0.200000 -0.200000  0.200000      2.000000
  0.200000 -0.200000  0.200000      2.000000
  0.400000  0.200000  0.200000      2.000000
  0.200000  0.400000  0.200000      2.000000
  0.200000  0.200000  0.400000      2.000000
 -0.200000  0.400000  0.200000      2.000000
 -0.400000  0.200000  0.200000      2.000000
 -0.200000  0.200000  0.400000      2.000000
 -0.400000 -0.200000  0.200000      2.000000
 -0.200000 -0.400000  0.200000      2.000000
 -0.200000 -0.200000  0.400000      2.000000
  0.200000 -0.400000  0.200000      2.000000
  0.400000 -0.200000  0.200000      2.000000
  0.200000 -0.200000  0.400000      2.000000
  0.400000  0.400000  0.200000      2.000000
  0.200000  0.400000  0.400000      2.000000
  0.400000  0.200000  0.400000      2.000000
 -0.400000  0.400000  0.200000      2.000000
 -0.400000  0.200000  0.400000      2.000000
 -0.200000  0.400000  0.400000      2.000000
 -0.400000 -0.400000  0.200000      2.000000
 -0.200000 -0.400000  0.400000      2.000000
 -0.400000 -0.200000  0.400000      2.000000
  0.400000 -0.400000  0.200000      2.000000
  0.400000 -0.200000  0.400000      2.000000
  0.200000 -0.400000  0.400000      2.000000
  0.400000  0.400000  0.400000      2.000000
 -0.400000  0.400000  0.400000      2.000000
 -0.400000 -0.400000  0.400000      2.000000
  0.400000 -0.400000  0.400000      2.000000
 
 Following cartesian coordinates:
            Coordinates               Weight
  0.000000  0.000000  0.000000      1.000000
  0.030395  0.000000  0.000000      2.000000
  0.000000  0.030395  0.000000      2.000000
  0.000000  0.000000  0.030395      2.000000
  0.060790  0.000000  0.000000      2.000000
  0.000000  0.060790  0.000000      2.000000
  0.000000  0.000000  0.060790      2.000000
  0.030395  0.030395  0.000000      2.000000
  0.000000  0.030395  0.030395      2.000000
  0.030395  0.000000  0.030395      2.000000
 -0.030395  0.030395  0.000000      2.000000
 -0.030395  0.000000  0.030395      2.000000
  0.000000 -0.030395  0.030395      2.000000
  0.060790  0.030395  0.000000      2.000000
  0.000000  0.060790  0.030395      2.000000
  0.030395  0.000000  0.060790      2.000000
 -0.030395  0.060790  0.000000      2.000000
 -0.060790  0.000000  0.030395      2.000000
  0.000000  0.030395  0.060790      2.000000
  0.000000 -0.060790  0.030395      2.000000
 -0.030395  0.000000  0.060790      2.000000
  0.060790  0.000000  0.030395      2.000000
  0.000000 -0.030395  0.060790      2.000000
  0.060790 -0.030395  0.000000      2.000000
  0.030395  0.060790  0.000000      2.000000
  0.060790  0.060790  0.000000      2.000000
  0.000000  0.060790  0.060790      2.000000
  0.060790  0.000000  0.060790      2.000000
 -0.060790  0.060790  0.000000      2.000000
 -0.060790  0.000000  0.060790      2.000000
  0.000000 -0.060790  0.060790      2.000000
  0.030395  0.030395  0.030395      2.000000
 -0.030395  0.030395  0.030395      2.000000
 -0.030395 -0.030395  0.030395      2.000000
  0.030395 -0.030395  0.030395      2.000000
  0.060790  0.030395  0.030395      2.000000
  0.030395  0.060790  0.030395      2.000000
  0.030395  0.030395  0.060790      2.000000
 -0.030395  0.060790  0.030395      2.000000
 -0.060790  0.030395  0.030395      2.000000
 -0.030395  0.030395  0.060790      2.000000
 -0.060790 -0.030395  0.030395      2.000000
 -0.030395 -0.060790  0.030395      2.000000
 -0.030395 -0.030395  0.060790      2.000000
  0.030395 -0.060790  0.030395      2.000000
  0.060790 -0.030395  0.030395      2.000000
  0.030395 -0.030395  0.060790      2.000000
  0.060790  0.060790  0.030395      2.000000
  0.030395  0.060790  0.060790      2.000000
  0.060790  0.030395  0.060790      2.000000
 -0.060790  0.060790  0.030395      2.000000
 -0.060790  0.030395  0.060790      2.000000
 -0.030395  0.060790  0.060790      2.000000
 -0.060790 -0.060790  0.030395      2.000000
 -0.030395 -0.060790  0.060790      2.000000
 -0.060790 -0.030395  0.060790      2.000000
  0.060790 -0.060790  0.030395      2.000000
  0.060790 -0.030395  0.060790      2.000000
  0.030395 -0.060790  0.060790      2.000000
  0.060790  0.060790  0.060790      2.000000
 -0.060790  0.060790  0.060790      2.000000
 -0.060790 -0.060790  0.060790      2.000000
  0.060790 -0.060790  0.060790      2.000000
 


--------------------------------------------------------------------------------------------------------




 Dimension of arrays:
   k-points           NKPTS =     63   k-points in BZ     NKDIM =     63   number of bands    NBANDS=    132
   number of dos      NEDOS =    301   number of ions     NIONS =     16
   non local maximal  LDIM  =      6   non local SUM 2l+1 LMDIM =     18
   total plane-waves  NPLWV =  46656
   max r-space proj   IRMAX =      1   max aug-charges    IRDMAX=   9546
   dimension x,y,z NGX =    36 NGY =   36 NGZ =   36
   dimension x,y,z NGXF=    72 NGYF=   72 NGZF=   72
   support grid    NGXF=    72 NGYF=   72 NGZF=   72
   ions per type =               6   5   1   4
   NGX,Y,Z   is equivalent  to a cutoff of   9.10,  9.10,  9.10 a.u.
   NGXF,Y,Z  is equivalent  to a cutoff of  18.19, 18.19, 18.19 a.u.

 SYSTEM =  unknown system                          
 POSCAR =  Nb-Mo-Ta-W alloy                        

 Startparameter for this run:
   NWRITE =      2    write-flag & timer
   PREC   = accura    normal or accurate (medium, high low for compatibility)
   ISTART =      0    job   : 0-new  1-cont  2-samecut
   ICHARG =      2    charge: 1-file 2-atom 10-const
   ISPIN  =      1    spin polarized calculation?
   LNONCOLLINEAR =      F non collinear calculations
   LSORBIT =      F    spin-orbit coupling
   INIWAV =      1    electr: 0-lowe 1-rand  2-diag
   LASPH  =      F    aspherical Exc in radial PAW
 Electronic Relaxation 1
   ENCUT  =  250.0 eV  18.37 Ry    4.29 a.u.   8.48  8.48  8.48*2*pi/ulx,y,z
   ENINI  =  250.0     initial cutoff
   ENAUG  =  455.7 eV  augmentation charge cutoff
   NELM   =     80;   NELMIN=  2; NELMDL= -5     # of ELM steps 
   EDIFF  = 0.1E-07   stopping-criterion for ELM
   LREAL  =      F    real-space projection
   NLSPLINE    = F    spline interpolate recip. space projectors
   LCOMPAT=      F    compatible to vasp.4.4
   GGA_COMPAT  = T    GGA compatible to vasp.4.4-vasp.4.6
   LMAXPAW     = -100 max onsite density
   LMAXMIX     =    2 max onsite mixed and CHGCAR
   VOSKOWN=      0    Vosko Wilk Nusair interpolation
   ROPT   =    0.00000   0.00000   0.00000   0.00000
 Ionic relaxation
   EDIFFG = -.1E-01   stopping-criterion for IOM
   NSW    =      0    number of steps for IOM
   NBLOCK =      1;   KBLOCK =      1    inner block; outer block 
   IBRION =     -1    ionic relax: 0-MD 1-quasi-New 2-CG
   NFREE  =      0    steps in history (QN), initial steepest desc. (CG)
   ISIF   =      2    stress and relaxation
   IWAVPR =     10    prediction:  0-non 1-charg 2-wave 3-comb
   ISYM   =      2    0-nonsym 1-usesym 2-fastsym
   LCORR  =      T    Harris-Foulkes like correction to forces

   POTIM  = 0.5000    time-step for ionic-motion
   TEIN   =    0.0    initial temperature
   TEBEG  =    0.0;   TEEND  =   0.0 temperature during run
   SMASS  =  -3.00    Nose mass-parameter (am)
   estimated Nose-frequenzy (Omega)   =  0.10E-29 period in steps = 0.13E+47 mass=  -0.989E-27a.u.
   SCALEE = 1.0000    scale energy and forces
   NPACO  =    256;   APACO  = 10.0  distance and # of slots for P.C.
   PSTRESS=    0.0 pullay stress

  Mass of Ions in am
   POMASS =  92.91 95.94180.95183.85
  Ionic Valenz
   ZVAL   =  13.00 14.00 11.00 14.00
  Atomic Wigner-Seitz radii
   RWIGS  =  -1.00 -1.00 -1.00 -1.00
  virtual crystal weights 
   VCA    =   1.00  1.00  1.00  1.00
   NELECT =     215.0000    total number of electrons
   NUPDOWN=      -1.0000    fix difference up-down

 DOS related values:
   EMIN   =  10.00;   EMAX   =-10.00  energy-range for DOS
   EFERMI =   0.00
   ISMEAR =     0;   SIGMA  =   0.02  broadening in eV -4-tet -1-fermi 0-gaus

 Electronic relaxation 2 (details)
   IALGO  =     38    algorithm
   LDIAG  =      T    sub-space diagonalisation (order eigenvalues)
   LSUBROT=      F    optimize rotation matrix (better conditioning)
   TURBO    =      0    0=normal 1=particle mesh
   IRESTART =      0    0=no restart 2=restart with 2 vectors
   NREBOOT  =      0    no. of reboots
   NMIN     =      0    reboot dimension
   EREF     =   0.00    reference energy to select bands
   IMIX   =      4    mixing-type and parameters
     AMIX     =   0.40;   BMIX     =  1.00
     AMIX_MAG =   1.60;   BMIX_MAG =  1.00
     AMIN     =   0.10
     WC   =   100.;   INIMIX=   1;  MIXPRE=   1;  MAXMIX= -45

 Intra band minimization:
   WEIMIN = 0.0000     energy-eigenvalue tresh-hold
   EBREAK =  0.19E-10  absolut break condition
   DEPER  =   0.30     relativ break condition  

   TIME   =   0.40     timestep for ELM

  volume/ion in A,a.u.               =      17.81       120.16
  Fermi-wavevector in a.u.,A,eV,Ry     =   1.490488  2.816614 30.226075  2.221554
  Thomas-Fermi vector in A             =   2.603263
 
 Write flags
   LWAVE        =      F    write WAVECAR
   LDOWNSAMPLE  =      F    k-point downsampling of WAVECAR
   LCHARG       =      F    write CHGCAR
   LVTOT        =      F    write LOCPOT, total local potential
   LVHAR        =      F    write LOCPOT, Hartree potential only
   LELF         =      F    write electronic localiz. function (ELF)
   LORBIT       =      0    0 simple, 1 ext, 2 COOP (PROOUT), +10 PAW based schemes


 Dipole corrections
   LMONO  =      F    monopole corrections only (constant potential shift)
   LDIPOL =      F    correct potential (dipole corrections)
   IDIPOL =      0    1-x, 2-y, 3-z, 4-all directions 
   EPSILON=  1.0000000 bulk dielectric constant

 Core level calculations are selected ICORELEVEL =  1
 Exchange correlation treatment:
   GGA     =    PE    GGA type
   LEXCH   =     8    internal setting for exchange type
   LIBXC   =     F    Libxc                    
   VOSKOWN =     0    Vosko Wilk Nusair interpolation
   LHFCALC =     F    Hartree Fock is set to
   LHFONE  =     F    Hartree Fock one center treatment
   AEXX    =    0.0000 exact exchange contribution

 Linear response parameters
   LEPSILON=     F    determine dielectric tensor
   LRPA    =     F    only Hartree local field effects (RPA)
   LNABLA  =     F    use nabla operator in PAW spheres
   LVEL    =     F    velocity operator in full k-point grid
   CSHIFT  =0.1000    complex shift for real part using Kramers Kronig
   OMEGAMAX=  -1.0    maximum frequency
   DEG_THRESHOLD= 0.2000000E-02 threshold for treating states as degnerate
   RTIME   =   -0.100 relaxation time in fs
  (WPLASMAI=    0.000 imaginary part of plasma frequency in eV, 0.658/RTIME)
   DFIELD  = 0.0000000 0.0000000 0.0000000 field for delta impulse in time
 
  Optional k-point grid parameters
   LKPOINTS_OPT  =     F    use optional k-point grid
   KPOINTS_OPT_MODE=     1    mode for optional k-point grid
 
 Orbital magnetization related:
   ORBITALMAG=     F  switch on orbital magnetization
   LCHIMAG   =     F  perturbation theory with respect to B field
   DQ        =  0.001000  dq finite difference perturbation B field
   LLRAUG    =     F  two centre corrections for induced B field



--------------------------------------------------------------------------------------------------------


 Static calculation
 charge density and potential will be updated during run
 non-spin polarized calculation
 Variant of blocked Davidson
 Davidson routine will perform the subspace rotation
 perform sub-space diagonalisation
    after iterative eigenvector-optimisation
 modified Broyden-mixing scheme, WC =      100.0
 initial mixing is a Kerker type mixing with AMIX =  0.4000 and BMIX =      1.0000
 Hartree-type preconditioning will be used
 using additional bands           24
 reciprocal scheme for non local part
 use partial core corrections
 calculate Harris-corrections to forces 
   (improved forces if not selfconsistent)
 use gradient corrections 
 use of overlap-Matrix (Vanderbilt PP)
 Gauss-broadening in eV      SIGMA  =   0.02


--------------------------------------------------------------------------------------------------------


  energy-cutoff  :      250.00
  volume of cell :      284.89
      direct lattice vectors                 reciprocal lattice vectors
     6.580000000  0.000000000  0.000000000     0.151975684  0.000000000  0.000000000
     0.000000000  6.580000000  0.000000000     0.000000000  0.151975684  0.000000000
     0.000000000  0.000000000  6.580000000     0.000000000  0.000000000  0.151975684

  length of vectors
     6.580000000  6.580000000  6.580000000     0.151975684  0.151975684  0.151975684


 
 k-points in units of 2pi/SCALE and weight: K-Spacing Value to Generate K-Mesh: 0.03
   0.00000000  0.00000000  0.00000000       0.008
   0.03039514  0.00000000  0.00000000       0.016
   0.00000000  0.03039514  0.00000000       0.016
   0.00000000  0.00000000  0.03039514       0.016
   0.06079027  0.00000000  0.00000000       0.016
   0.00000000  0.06079027  0.00000000       0.016
   0.00000000  0.00000000  0.06079027       0.016
   0.03039514  0.03039514  0.00000000       0.016
   0.00000000  0.03039514  0.03039514       0.016
   0.03039514  0.00000000  0.03039514       0.016
  -0.03039514  0.03039514  0.00000000       0.016
  -0.03039514  0.00000000  0.03039514       0.016
   0.00000000 -0.03039514  0.03039514       0.016
   0.06079027  0.03039514  0.00000000       0.016
   0.00000000  0.06079027  0.03039514       0.016
   0.03039514  0.00000000  0.06079027       0.016
  -0.03039514  0.06079027  0.00000000       0.016
  -0.06079027  0.00000000  0.03039514       0.016
   0.00000000  0.03039514  0.06079027       0.016
   0.00000000 -0.06079027  0.03039514       0.016
  -0.03039514  0.00000000  0.06079027       0.016
   0.06079027  0.00000000  0.03039514       0.016
   0.00000000 -0.03039514  0.06079027       0.016
   0.06079027 -0.03039514  0.00000000       0.016
   0.03039514  0.06079027  0.00000000       0.016
   0.06079027  0.06079027  0.00000000       0.016
   0.00000000  0.06079027  0.06079027       0.016
   0.06079027  0.00000000  0.06079027       0.016
  -0.06079027  0.06079027  0.00000000       0.016
  -0.06079027  0.00000000  0.06079027       0.016
   0.00000000 -0.06079027  0.06079027       0.016
   0.03039514  0.03039514  0.03039514       0.016
  -0.03039514  0.03039514  0.03039514       0.016
  -0.03039514 -0.03039514  0.03039514       0.016
   0.03039514 -0.03039514  0.03039514       0.016
   0.06079027  0.03039514  0.03039514       0.016
   0.03039514  0.06079027  0.03039514       0.016
   0.03039514  0.03039514  0.06079027       0.016
  -0.03039514  0.06079027  0.03039514       0.016
  -0.06079027  0.03039514  0.03039514       0.016
  -0.03039514  0.03039514  0.06079027       0.016
  -0.06079027 -0.03039514  0.03039514       0.016
  -0.03039514 -0.06079027  0.03039514       0.016
  -0.03039514 -0.03039514  0.06079027       0.016
   0.03039514 -0.06079027  0.03039514       0.016
   0.06079027 -0.03039514  0.03039514       0.016
   0.03039514 -0.03039514  0.06079027       0.016
   0.06079027  0.06079027  0.03039514       0.016
   0.03039514  0.06079027  0.06079027       0.016
   0.06079027  0.03039514  0.06079027       0.016
  -0.06079027  0.06079027  0.03039514       0.016
  -0.06079027  0.03039514  0.06079027       0.016
  -0.03039514  0.06079027  0.06079027       0.016
  -0.06079027 -0.06079027  0.03039514       0.016
  -0.03039514 -0.06079027  0.06079027       0.016
  -0.06079027 -0.03039514  0.06079027       0.016
   0.06079027 -0.06079027  0.03039514       0.016
   0.06079027 -0.03039514  0.06079027       0.016
   0.03039514 -0.06079027  0.06079027       0.016
   0.06079027  0.06079027  0.06079027       0.016
  -0.06079027  0.06079027  0.06079027       0.016
  -0.06079027 -0.06079027  0.06079027       0.016
   0.06079027 -0.06079027  0.06079027       0.016
 
 k-points in reciprocal lattice and weights: K-Spacing Value to Generate K-Mesh: 0.03
   0.00000000  0.00000000  0.00000000       0.008
   0.20000000  0.00000000  0.00000000       0.016
   0.00000000  0.20000000  0.00000000       0.016
   0.00000000  0.00000000  0.20000000       0.016
   0.40000000  0.00000000  0.00000000       0.016
   0.00000000  0.40000000  0.00000000       0.016
   0.00000000  0.00000000  0.40000000       0.016
   0.20000000  0.20000000  0.00000000       0.016
   0.00000000  0.20000000  0.20000000       0.016
   0.20000000  0.00000000  0.20000000       0.016
  -0.20000000  0.20000000  0.00000000       0.016
  -0.20000000  0.00000000  0.20000000       0.016
   0.00000000 -0.20000000  0.20000000       0.016
   0.40000000  0.20000000  0.00000000       0.016
   0.00000000  0.40000000  0.20000000       0.016
   0.20000000  0.00000000  0.40000000       0.016
  -0.20000000  0.40000000  0.00000000       0.016
  -0.40000000  0.00000000  0.20000000       0.016
   0.00000000  0.20000000  0.40000000       0.016
   0.00000000 -0.40000000  0.20000000       0.016
  -0.20000000  0.00000000  0.40000000       0.016
   0.40000000  0.00000000  0.20000000       0.016
   0.00000000 -0.20000000  0.40000000       0.016
   0.40000000 -0.20000000  0.00000000       0.016
   0.20000000  0.40000000  0.00000000       0.016
   0.40000000  0.40000000  0.00000000       0.016
   0.00000000  0.40000000  0.40000000       0.016
   0.40000000  0.00000000  0.40000000       0.016
  -0.40000000  0.40000000  0.00000000       0.016
  -0.40000000  0.00000000  0.40000000       0.016
   0.00000000 -0.40000000  0.40000000       0.016
   0.20000000  0.20000000  0.20000000       0.016
  -0.20000000  0.20000000  0.20000000       0.016
  -0.20000000 -0.20000000  0.20000000       0.016
   0.20000000 -0.20000000  0.20000000       0.016
   0.40000000  0.20000000  0.20000000       0.016
   0.20000000  0.40000000  0.20000000       0.016
   0.20000000  0.20000000  0.40000000       0.016
  -0.20000000  0.40000000  0.20000000       0.016
  -0.40000000  0.20000000  0.20000000       0.016
  -0.20000000  0.20000000  0.40000000       0.016
  -0.40000000 -0.20000000  0.20000000       0.016
  -0.20000000 -0.40000000  0.20000000       0.016
  -0.20000000 -0.20000000  0.40000000       0.016
   0.20000000 -0.40000000  0.20000000       0.016
   0.40000000 -0.20000000  0.20000000       0.016
   0.20000000 -0.20000000  0.40000000       0.016
   0.40000000  0.40000000  0.20000000       0.016
   0.20000000  0.40000000  0.40000000       0.016
   0.40000000  0.20000000  0.40000000       0.016
  -0.40000000  0.40000000  0.20000000       0.016
  -0.40000000  0.20000000  0.40000000       0.016
  -0.20000000  0.40000000  0.40000000       0.016
  -0.40000000 -0.40000000  0.20000000       0.016
  -0.20000000 -0.40000000  0.40000000       0.016
  -0.40000000 -0.20000000  0.40000000       0.016
   0.40000000 -0.40000000  0.20000000       0.016
   0.40000000 -0.20000000  0.40000000       0.016
   0.20000000 -0.40000000  0.40000000       0.016
   0.40000000  0.40000000  0.40000000       0.016
  -0.40000000  0.40000000  0.40000000       0.016
  -0.40000000 -0.40000000  0.40000000       0.016
   0.40000000 -0.40000000  0.40000000       0.016
 
 position of ions in fractional coordinates (direct lattice) 
   0.00000000  0.00000000  0.00000000
   0.00000000  0.00000000  0.50000000
   0.50000000  0.00000000  0.00000000
   0.75000000  0.25000000  0.75000000
   0.25000000  0.75000000  0.25000000
   0.25000000  0.75000000  0.75000000
   0.25000000  0.25000000  0.25000000
   0.00000000  0.50000000  0.50000000
   0.75000000  0.25000000  0.25000000
   0.50000000  0.50000000  0.50000000
   0.50000000  0.00000000  0.50000000
   0.25000000  0.25000000  0.75000000
   0.00000000  0.50000000  0.00000000
   0.50000000  0.50000000  0.00000000
   0.75000000  0.75000000  0.25000000
   0.75000000  0.75000000  0.75000000
 
 position of ions in cartesian coordinates  (Angst):
   0.00000000  0.00000000  0.00000000
   0.00000000  0.00000000  3.29000000
   3.29000000  0.00000000  0.00000000
   4.93500000  1.64500000  4.93500000
   1.64500000  4.93500000  1.64500000
   1.64500000  4.93500000  4.93500000
   1.64500000  1.64500000  1.64500000
   0.00000000  3.29000000  3.29000000
   4.93500000  1.64500000  1.64500000
   3.29000000  3.29000000  3.29000000
   3.29000000  0.00000000  3.29000000
   1.64500000  1.64500000  4.93500000
   0.00000000  3.29000000  0.00000000
   3.29000000  3.29000000  0.00000000
   4.93500000  4.93500000  1.64500000
   4.93500000  4.93500000  4.93500000
 


--------------------------------------------------------------------------------------------------------


 k-point   1 :   0.0000 0.0000 0.0000  plane waves:    2517
 k-point   2 :   0.2000 0.0000 0.0000  plane waves:    2545
 k-point   3 :   0.0000 0.2000 0.0000  plane waves:    2545
 k-point   4 :   0.0000 0.0000 0.2000  plane waves:    2545
 k-point   5 :   0.4000 0.0000 0.0000  plane waves:    2569
 k-point   6 :   0.0000 0.4000 0.0000  plane waves:    2569
 k-point   7 :   0.0000 0.0000 0.4000  plane waves:    2569
 k-point   8 :   0.2000 0.2000 0.0000  plane waves:    2562
 k-point   9 :   0.0000 0.2000 0.2000  plane waves:    2562
 k-point  10 :   0.2000 0.0000 0.2000  plane waves:    2562
 k-point  11 :  -0.2000 0.2000 0.0000  plane waves:    2562
 k-point  12 :  -0.2000 0.0000 0.2000  plane waves:    2562
 k-point  13 :   0.0000-0.2000 0.2000  plane waves:    2562
 k-point  14 :   0.4000 0.2000 0.0000  plane waves:    2566
 k-point  15 :   0.0000 0.4000 0.2000  plane waves:    2566
 k-point  16 :   0.2000 0.0000 0.4000  plane waves:    2566
 k-point  17 :  -0.2000 0.4000 0.0000  plane waves:    2566
 k-point  18 :  -0.4000 0.0000 0.2000  plane waves:    2566
 k-point  19 :   0.0000 0.2000 0.4000  plane waves:    2566
 k-point  20 :   0.0000-0.4000 0.2000  plane waves:    2566
 k-point  21 :  -0.2000 0.0000 0.4000  plane waves:    2566
 k-point  22 :   0.4000 0.0000 0.2000  plane waves:    2566
 k-point  23 :   0.0000-0.2000 0.4000  plane waves:    2566
 k-point  24 :   0.4000-0.2000 0.0000  plane waves:    2566
 k-point  25 :   0.2000 0.4000 0.0000  plane waves:    2566
 k-point  26 :   0.4000 0.4000 0.0000  plane waves:    2570
 k-point  27 :   0.0000 0.4000 0.4000  plane waves:    2570
 k-point  28 :   0.4000 0.0000 0.4000  plane waves:    2570
 k-point  29 :  -0.4000 0.4000 0.0000  plane waves:    2570
 k-point  30 :  -0.4000 0.0000 0.4000  plane waves:    2570
 k-point  31 :   0.0000-0.4000 0.4000  plane waves:    2570
 k-point  32 :   0.2000 0.2000 0.2000  plane waves:    2572
 k-point  33 :  -0.2000 0.2000 0.2000  plane waves:    2572
 k-point  34 :  -0.2000-0.2000 0.2000  plane waves:    2572
 k-point  35 :   0.2000-0.2000 0.2000  plane waves:    2572
 k-point  36 :   0.4000 0.2000 0.2000  plane waves:    2546
 k-point  37 :   0.2000 0.4000 0.2000  plane waves:    2546
 k-point  38 :   0.2000 0.2000 0.4000  plane waves:    2546
 k-point  39 :  -0.2000 0.4000 0.2000  plane waves:    2546
 k-point  40 :  -0.4000 0.2000 0.2000  plane waves:    2546
 k-point  41 :  -0.2000 0.2000 0.4000  plane waves:    2546
 k-point  42 :  -0.4000-0.2000 0.2000  plane waves:    2546
 k-point  43 :  -0.2000-0.4000 0.2000  plane waves:    2546
 k-point  44 :  -0.2000-0.2000 0.4000  plane waves:    2546
 k-point  45 :   0.2000-0.4000 0.2000  plane waves:    2546
 k-point  46 :   0.4000-0.2000 0.2000  plane waves:    2546
 k-point  47 :   0.2000-0.2000 0.4000  plane waves:    2546
 k-point  48 :   0.4000 0.4000 0.2000  plane waves:    2549
 k-point  49 :   0.2000 0.4000 0.4000  plane waves:    2549
 k-point  50 :   0.4000 0.2000 0.4000  plane waves:    2549
 k-point  51 :  -0.4000 0.4000 0.2000  plane waves:    2549
 k-point  52 :  -0.4000 0.2000 0.4000  plane waves:    2549
 k-point  53 :  -0.2000 0.4000 0.4000  plane waves:    2549
 k-point  54 :  -0.4000-0.4000 0.2000  plane waves:    2549
 k-point  55 :  -0.2000-0.4000 0.4000  plane waves:    2549
 k-point  56 :  -0.4000-0.2000 0.4000  plane waves:    2549
 k-point  57 :   0.4000-0.4000 0.2000  plane waves:    2549
 k-point  58 :   0.4000-0.2000 0.4000  plane waves:    2549
 k-point  59 :   0.2000-0.4000 0.4000  plane waves:    2549
 k-point  60 :   0.4000 0.4000 0.4000  plane waves:    2533
 k-point  61 :  -0.4000 0.4000 0.4000  plane waves:    2533
 k-point  62 :  -0.4000-0.4000 0.4000  plane waves:    2533
 k-point  63 :   0.4000-0.4000 0.4000  plane waves:    2533

 maximum and minimum number of plane-waves per node :       235      194

 maximum number of plane-waves:      2572
 maximum index in each direction: 
   IXMAX=    8   IYMAX=    8   IZMAX=    8
   IXMIN=   -8   IYMIN=   -8   IZMIN=   -8


 parallel 3D FFT for wavefunctions:
    minimum data exchange during FFTs selected (reduces bandwidth)
 parallel 3D FFT for charge:
    minimum data exchange during FFTs selected (reduces bandwidth)


 total amount of memory used by VASP MPI-rank0    48519. kBytes
=======================================================================

   base      :      30000. kBytes
   nonl-proj :       8332. kBytes
   fftplans  :        456. kBytes
   grid      :        919. kBytes
   one-center:         31. kBytes
   wavefun   :       8781. kBytes
 
     INWAV:  cpu time      0.0000: real time      0.0000
 Broyden mixing: mesh for mixing (old mesh)
   NGX = 17   NGY = 17   NGZ = 17
  (NGX  = 72   NGY  = 72   NGZ  = 72)
  gives a total of   4913 points

 initial charge density was supplied:
 charge density of overlapping atoms calculated
 number of electron     215.0000000 magnetization 
 keeping initial charge density in first step


--------------------------------------------------------------------------------------------------------


 Maximum index for augmentation-charges          517 (set IRDMAX)


--------------------------------------------------------------------------------------------------------


 First call to EWALD:  gamma=   0.269
 Maximum number of real-space cells 3x 3x 3
 Maximum number of reciprocal cells 3x 3x 3

    FEWALD:  cpu time      0.0011: real time      0.0011


--------------------------------------- Iteration      1(   1)  ---------------------------------------


    POTLOK:  cpu time      0.0060: real time      0.0103
    SETDIJ:  cpu time      0.0022: real time      0.0023
     EDDAV:  cpu time      3.1892: real time      3.2025
       DOS:  cpu time      0.0048: real time      0.0048
    --------------------------------------------
      LOOP:  cpu time      3.2022: real time      3.2199

 eigenvalue-minimisations  : 17072
 total energy-change (2. order) : 0.2018150E+04  (-0.8521244E+04)
 number of electron     215.0000000 magnetization 
 augmentation part      215.0000000 magnetization 

 Free energy of the ion-electron system (eV)
  ---------------------------------------------------
  alpha Z        PSCENC =      1689.62951467
  Ewald energy   TEWEN  =    -23033.13055748
  -Hartree energ DENC   =     -4428.43507649
  -exchange      EXHF   =         0.00000000
  -V(xc)+E(xc)   XCENC  =       925.52566787
  PAW double counting   =     21566.68178113   -21253.30858165
  entropy T*S    EENTRO =        -0.00077290
  eigenvalues    EBANDS =      -598.78837492
  atomic energy  EATOM  =     27149.97610102
  Solvation  Ediel_sol  =         0.00000000
  ---------------------------------------------------
  free energy    TOTEN  =      2018.14970125 eV

  energy without entropy =     2018.15047415  energy(sigma->0) =     2018.15008770


--------------------------------------------------------------------------------------------------------




--------------------------------------- Iteration      1(   2)  ---------------------------------------


     EDDAV:  cpu time      3.1963: real time      3.2099
       DOS:  cpu time      0.0046: real time      0.0046
    --------------------------------------------
      LOOP:  cpu time      3.2009: real time      3.2145

 eigenvalue-minimisations  : 17284
 total energy-change (2. order) :-0.2023679E+04  (-0.1960320E+04)
 number of electron     215.0000000 magnetization 
 augmentation part      215.0000000 magnetization 

 Free energy of the ion-electron system (eV)
  ---------------------------------------------------
  alpha Z        PSCENC =      1689.62951467
  Ewald energy   TEWEN  =    -23033.13055748
  -Hartree energ DENC   =     -4428.43507649
  -exchange      EXHF   =         0.00000000
  -V(xc)+E(xc)   XCENC  =       925.52566787
  PAW double counting   =     21566.68178113   -21253.30858165
  entropy T*S    EENTRO =        -0.00215663
  eigenvalues    EBANDS =     -2622.46562285
  atomic energy  EATOM  =     27149.97610102
  Solvation  Ediel_sol  =         0.00000000
  ---------------------------------------------------
  free energy    TOTEN  =        -5.52893040 eV

  energy without entropy =       -5.52677378  energy(sigma->0) =       -5.52785209


--------------------------------------------------------------------------------------------------------




--------------------------------------- Iteration      1(   3)  ---------------------------------------


     EDDAV:  cpu time     21.2660: real time     21.3663
       DOS:  cpu time      0.0048: real time      0.0048
    --------------------------------------------
      LOOP:  cpu time     21.2708: real time     21.3711

 eigenvalue-minimisations  : 25368
 total energy-change (2. order) :-0.1723036E+03  (-0.1630851E+03)
 number of electron     215.0000000 magnetization 
 augmentation part      215.0000000 magnetization 

 Free energy of the ion-electron system (eV)
  ---------------------------------------------------
  alpha Z        PSCENC =      1689.62951467
  Ewald energy   TEWEN  =    -23033.13055748
  -Hartree energ DENC   =     -4428.43507649
  -exchange      EXHF   =         0.00000000
  -V(xc)+E(xc)   XCENC  =       925.52566787
  PAW double counting   =     21566.68178113   -21253.30858165
  entropy T*S    EENTRO =        -0.00216300
  eigenvalues    EBANDS =     -2794.76921130
  atomic energy  EATOM  =     27149.97610102
  Solvation  Ediel_sol  =         0.00000000
  ---------------------------------------------------
  free energy    TOTEN  =      -177.83252523 eV

  energy without entropy =     -177.83036223  energy(sigma->0) =     -177.83144373


--------------------------------------------------------------------------------------------------------




--------------------------------------- Iteration      1(   4)  ---------------------------------------


     EDDAV:  cpu time      4.4867: real time      4.5039
       DOS:  cpu time      0.0049: real time      0.0050
    --------------------------------------------
      LOOP:  cpu time      4.4917: real time      4.5089

 eigenvalue-minimisations  : 26544
 total energy-change (2. order) :-0.1165887E+02  (-0.1141227E+02)
 number of electron     215.0000000 magnetization 
 augmentation part      215.0000000 magnetization 

 Free energy of the ion-electron system (eV)
  ---------------------------------------------------
  alpha Z        PSCENC =      1689.62951467
  Ewald energy   TEWEN  =    -23033.13055748
  -Hartree energ DENC   =     -4428.43507649
  -exchange      EXHF   =         0.00000000
  -V(xc)+E(xc)   XCENC  =       925.52566787
  PAW double counting   =     21566.68178113   -21253.30858165
  entropy T*S    EENTRO =        -0.00243731
  eigenvalues    EBANDS =     -2806.42780675
  atomic energy  EATOM  =     27149.97610102
  Solvation  Ediel_sol  =         0.00000000
  ---------------------------------------------------
  free energy    TOTEN  =      -189.49139499 eV

  energy without entropy =     -189.48895768  energy(sigma->0) =     -189.49017633


--------------------------------------------------------------------------------------------------------




--------------------------------------- Iteration      1(   5)  ---------------------------------------


     EDDAV:  cpu time      4.3050: real time      4.3243
       DOS:  cpu time      0.0049: real time      0.0049
    CHARGE:  cpu time      0.0847: real time      0.0852
    MIXING:  cpu time      0.0002: real time      0.0002
    --------------------------------------------
      LOOP:  cpu time      4.3947: real time      4.4145

 eigenvalue-minimisations  : 25776
 total energy-change (2. order) :-0.6375908E+00  (-0.6332834E+00)
 number of electron     214.9999798 magnetization 
 augmentation part       37.9908141 magnetization 

 Broyden mixing:
  rms(total) = 0.48768E+01    rms(broyden)= 0.48754E+01
  rms(prec ) = 0.54957E+01
  weight for this iteration     100.00

 Free energy of the ion-electron system (eV)
  ---------------------------------------------------
  alpha Z        PSCENC =      1689.62951467
  Ewald energy   TEWEN  =    -23033.13055748
  -Hartree energ DENC   =     -4428.43507649
  -exchange      EXHF   =         0.00000000
  -V(xc)+E(xc)   XCENC  =       925.52566787
  PAW double counting   =     21566.68178113   -21253.30858165
  entropy T*S    EENTRO =        -0.00247295
  eigenvalues    EBANDS =     -2807.06536187
  atomic energy  EATOM  =     27149.97610102
  Solvation  Ediel_sol  =         0.00000000
  ---------------------------------------------------
  free energy    TOTEN  =      -190.12898575 eV

  energy without entropy =     -190.12651280  energy(sigma->0) =     -190.12774927


--------------------------------------------------------------------------------------------------------




--------------------------------------- Iteration      1(   6)  ---------------------------------------


    POTLOK:  cpu time      0.0045: real time      0.0046
    SETDIJ:  cpu time      0.0018: real time      0.0018
     EDDAV:  cpu time      3.5204: real time      3.5335
       DOS:  cpu time      0.0049: real time      0.0049
    CHARGE:  cpu time      0.0836: real time      0.0839
    MIXING:  cpu time      0.0003: real time      0.0003
    --------------------------------------------
      LOOP:  cpu time      3.6155: real time      3.6290

 eigenvalue-minimisations  : 19632
 total energy-change (2. order) : 0.8029633E+01  (-0.2303709E+01)
 number of electron     214.9999785 magnetization 
 augmentation part       39.8411720 magnetization 

 Broyden mixing:
  rms(total) = 0.16625E+01    rms(broyden)= 0.16622E+01
  rms(prec ) = 0.22266E+01
  weight for this iteration     100.00

 eigenvalues of (default mixing * dielectric matrix)
  average eigenvalue GAMMA=   1.3641
  1.3641

 Free energy of the ion-electron system (eV)
  ---------------------------------------------------
  alpha Z        PSCENC =      1689.62951467
  Ewald energy   TEWEN  =    -23033.13055748
  -Hartree energ DENC   =     -4188.43871378
  -exchange      EXHF   =         0.00000000
  -V(xc)+E(xc)   XCENC  =       913.53156675
  PAW double counting   =     24576.04741694   -24288.52429732
  entropy T*S    EENTRO =        -0.00264463
  eigenvalues    EBANDS =     -3001.18773918
  atomic energy  EATOM  =     27149.97610102
  Solvation  Ediel_sol  =         0.00000000
  ---------------------------------------------------
  free energy    TOTEN  =      -182.09935301 eV

  energy without entropy =     -182.09670837  energy(sigma->0) =     -182.09803069


--------------------------------------------------------------------------------------------------------




--------------------------------------- Iteration      1(   7)  ---------------------------------------


    POTLOK:  cpu time      0.0040: real time      0.0042
    SETDIJ:  cpu time      0.0017: real time      0.0017
     EDDAV:  cpu time      4.1764: real time      4.1924
       DOS:  cpu time      0.0051: real time      0.0051
    CHARGE:  cpu time      0.0845: real time      0.0847
    MIXING:  cpu time      0.0003: real time      0.0003
    --------------------------------------------
      LOOP:  cpu time      4.2719: real time      4.2884

 eigenvalue-minimisations  : 24320
 total energy-change (2. order) : 0.1274301E+00  (-0.1383658E+01)
 number of electron     214.9999792 magnetization 
 augmentation part       39.6420194 magnetization 

 Broyden mixing:
  rms(total) = 0.94027E+00    rms(broyden)= 0.93984E+00
  rms(prec ) = 0.23244E+01
  weight for this iteration     100.00

 eigenvalues of (default mixing * dielectric matrix)
  average eigenvalue GAMMA=   1.0266
  1.4995  0.5538

 Free energy of the ion-electron system (eV)
  ---------------------------------------------------
  alpha Z        PSCENC =      1689.62951467
  Ewald energy   TEWEN  =    -23033.13055748
  -Hartree energ DENC   =     -4116.84518963
  -exchange      EXHF   =         0.00000000
  -V(xc)+E(xc)   XCENC  =       909.45892090
  PAW double counting   =     26204.58801499   -25924.25894414
  entropy T*S    EENTRO =        -0.00392808
  eigenvalues    EBANDS =     -3061.38585517
  atomic energy  EATOM  =     27149.97610102
  Solvation  Ediel_sol  =         0.00000000
  ---------------------------------------------------
  free energy    TOTEN  =      -181.97192291 eV

  energy without entropy =     -181.96799484  energy(sigma->0) =     -181.96995887


--------------------------------------------------------------------------------------------------------




--------------------------------------- Iteration      1(   8)  ---------------------------------------


    POTLOK:  cpu time      0.0044: real time      0.0046
    SETDIJ:  cpu time      0.0017: real time      0.0017
     EDDAV:  cpu time      3.7608: real time      3.7749
       DOS:  cpu time      0.0051: real time      0.0051
    CHARGE:  cpu time      0.0846: real time      0.0849
    MIXING:  cpu time      0.0003: real time      0.0003
    --------------------------------------------
      LOOP:  cpu time      3.8568: real time      3.8714

 eigenvalue-minimisations  : 21632
 total energy-change (2. order) : 0.1831319E+01  (-0.7327833E+00)
 number of electron     214.9999787 magnetization 
 augmentation part       40.1361264 magnetization 

 Broyden mixing:
  rms(total) = 0.38629E+00    rms(broyden)= 0.38563E+00
  rms(prec ) = 0.62286E+00
  weight for this iteration     100.00

 eigenvalues of (default mixing * dielectric matrix)
  average eigenvalue GAMMA=   0.9833
  1.4887  1.0548  0.4065

 Free energy of the ion-electron system (eV)
  ---------------------------------------------------
  alpha Z        PSCENC =      1689.62951467
  Ewald energy   TEWEN  =    -23033.13055748
  -Hartree energ DENC   =     -4077.12222834
  -exchange      EXHF   =         0.00000000
  -V(xc)+E(xc)   XCENC  =       907.65468784
  PAW double counting   =     26748.34745299   -26472.07474567
  entropy T*S    EENTRO =        -0.00332789
  eigenvalues    EBANDS =     -3093.41750072
  atomic energy  EATOM  =     27149.97610102
  Solvation  Ediel_sol  =         0.00000000
  ---------------------------------------------------
  free energy    TOTEN  =      -180.14060358 eV

  energy without entropy =     -180.13727569  energy(sigma->0) =     -180.13893964


--------------------------------------------------------------------------------------------------------




--------------------------------------- Iteration      1(   9)  ---------------------------------------


    POTLOK:  cpu time      0.0044: real time      0.0045
    SETDIJ:  cpu time      0.0017: real time      0.0017
     EDDAV:  cpu time      3.9037: real time      3.9187
       DOS:  cpu time      0.0048: real time      0.0048
    CHARGE:  cpu time      0.0846: real time      0.0849
    MIXING:  cpu time      0.0003: real time      0.0003
    --------------------------------------------
      LOOP:  cpu time      3.9995: real time      4.0148

 eigenvalue-minimisations  : 22968
 total energy-change (2. order) :-0.4512741E-02  (-0.1293840E+00)
 number of electron     214.9999788 magnetization 
 augmentation part       40.1235570 magnetization 

 Broyden mixing:
  rms(total) = 0.29415E+00    rms(broyden)= 0.29407E+00
  rms(prec ) = 0.41297E+00
  weight for this iteration     100.00

 eigenvalues of (default mixing * dielectric matrix)
  average eigenvalue GAMMA=   1.0907
  1.7146  1.7146  0.5614  0.3723

 Free energy of the ion-electron system (eV)
  ---------------------------------------------------
  alpha Z        PSCENC =      1689.62951467
  Ewald energy   TEWEN  =    -23033.13055748
  -Hartree energ DENC   =     -4075.41000794
  -exchange      EXHF   =         0.00000000
  -V(xc)+E(xc)   XCENC  =       907.57092338
  PAW double counting   =     26854.99762830   -26577.64823853
  entropy T*S    EENTRO =        -0.00288485
  eigenvalues    EBANDS =     -3096.12759488
  atomic energy  EATOM  =     27149.97610102
  Solvation  Ediel_sol  =         0.00000000
  ---------------------------------------------------
  free energy    TOTEN  =      -180.14511632 eV

  energy without entropy =     -180.14223147  energy(sigma->0) =     -180.14367390


--------------------------------------------------------------------------------------------------------




--------------------------------------- Iteration      1(  10)  ---------------------------------------


    POTLOK:  cpu time      0.0038: real time      0.0039
    SETDIJ:  cpu time      0.0016: real time      0.0016
     EDDAV:  cpu time      3.8742: real time      3.8886
       DOS:  cpu time      0.0048: real time      0.0048
    CHARGE:  cpu time      0.0845: real time      0.0847
    MIXING:  cpu time      0.0003: real time      0.0003
    --------------------------------------------
      LOOP:  cpu time      3.9692: real time      3.9840

 eigenvalue-minimisations  : 22680
 total energy-change (2. order) : 0.2500245E-01  (-0.3075108E-01)
 number of electron     214.9999789 magnetization 
 augmentation part       40.0402406 magnetization 

 Broyden mixing:
  rms(total) = 0.12039E+00    rms(broyden)= 0.12034E+00
  rms(prec ) = 0.19575E+00
  weight for this iteration     100.00

 eigenvalues of (default mixing * dielectric matrix)
  average eigenvalue GAMMA=   1.1598
  2.4347  1.6615  0.8984  0.4031  0.4013

 Free energy of the ion-electron system (eV)
  ---------------------------------------------------
  alpha Z        PSCENC =      1689.62951467
  Ewald energy   TEWEN  =    -23033.13055748
  -Hartree energ DENC   =     -4078.05062954
  -exchange      EXHF   =         0.00000000
  -V(xc)+E(xc)   XCENC  =       907.64459019
  PAW double counting   =     26925.53555704   -26645.29132181
  entropy T*S    EENTRO =        -0.00291792
  eigenvalues    EBANDS =     -3096.43045004
  atomic energy  EATOM  =     27149.97610102
  Solvation  Ediel_sol  =         0.00000000
  ---------------------------------------------------
  free energy    TOTEN  =      -180.12011387 eV

  energy without entropy =     -180.11719595  energy(sigma->0) =     -180.11865491


--------------------------------------------------------------------------------------------------------




--------------------------------------- Iteration      1(  11)  ---------------------------------------


    POTLOK:  cpu time      0.0044: real time      0.0045
    SETDIJ:  cpu time      0.0017: real time      0.0017
     EDDAV:  cpu time      3.9371: real time      3.9519
       DOS:  cpu time      0.0041: real time      0.0042
    CHARGE:  cpu time      0.0837: real time      0.0840
    MIXING:  cpu time      0.0003: real time      0.0003
    --------------------------------------------
      LOOP:  cpu time      4.0313: real time      4.0465

 eigenvalue-minimisations  : 23240
 total energy-change (2. order) : 0.1002227E-02  (-0.8001910E-02)
 number of electron     214.9999789 magnetization 
 augmentation part       40.0175622 magnetization 

 Broyden mixing:
  rms(total) = 0.49586E-01    rms(broyden)= 0.49501E-01
  rms(prec ) = 0.13288E+00
  weight for this iteration     100.00

 eigenvalues of (default mixing * dielectric matrix)
  average eigenvalue GAMMA=   1.0698
  2.5242  1.6327  0.9106  0.5367  0.4403  0.3741

 Free energy of the ion-electron system (eV)
  ---------------------------------------------------
  alpha Z        PSCENC =      1689.62951467
  Ewald energy   TEWEN  =    -23033.13055748
  -Hartree energ DENC   =     -4078.78921814
  -exchange      EXHF   =         0.00000000
  -V(xc)+E(xc)   XCENC  =       907.67124735
  PAW double counting   =     26959.76334007   -26677.59542502
  entropy T*S    EENTRO =        -0.00302671
  eigenvalues    EBANDS =     -3097.64108741
  atomic energy  EATOM  =     27149.97610102
  Solvation  Ediel_sol  =         0.00000000
  ---------------------------------------------------
  free energy    TOTEN  =      -180.11911164 eV

  energy without entropy =     -180.11608493  energy(sigma->0) =     -180.11759829


--------------------------------------------------------------------------------------------------------




--------------------------------------- Iteration      1(  12)  ---------------------------------------


    POTLOK:  cpu time      0.0040: real time      0.0041
    SETDIJ:  cpu time      0.0017: real time      0.0017
     EDDAV:  cpu time      3.7553: real time      3.7694
       DOS:  cpu time      0.0037: real time      0.0037
    CHARGE:  cpu time      0.0841: real time      0.0843
    MIXING:  cpu time      0.0003: real time      0.0003
    --------------------------------------------
      LOOP:  cpu time      3.8490: real time      3.8635

 eigenvalue-minimisations  : 21560
 total energy-change (2. order) : 0.5361228E-02  (-0.2614459E-02)
 number of electron     214.9999789 magnetization 
 augmentation part       40.0168681 magnetization 

 Broyden mixing:
[...]
     41     -24.2841      2.00000
     42     -24.2592      2.00000
     43     -23.6307      2.00000
     44     -23.6071      2.00000
     45     -23.5779      2.00000
     46     -20.6824      2.00000
     47     -20.6278      2.00000
     48     -20.5918      2.00000
     49     -20.5369      2.00000
     50     -20.4992      2.00000
     51     -20.3973      2.00000
     52     -20.3236      2.00000
     53     -20.3052      2.00000
     54     -20.2850      2.00000
     55     -20.2391      2.00000
     56     -20.2118      2.00000
     57     -20.1983      2.00000
     58     -20.1230      2.00000
     59     -20.0407      2.00000
     60     -20.0124      2.00000
     61     -19.9664      2.00000
     62     -19.9404      2.00000
     63     -19.8929      2.00000
     64       4.9598      2.00000
     65       5.5901      2.00000
     66       5.7622      2.00000
     67       6.2099      2.00000
     68       6.4007      2.00000
     69       6.6351      2.00000
     70       6.7904      2.00000
     71       7.3246      2.00000
     72       7.4163      2.00000
     73       7.4680      2.00000
     74       7.4962      2.00000
     75       7.5425      2.00000
     76       7.5877      2.00000
     77       7.6740      2.00000
     78       7.7099      2.00000
     79       7.7704      2.00000
     80       7.7999      2.00000
     81       7.8506      2.00000
     82       7.8913      2.00000
     83       7.9168      2.00000
     84       8.1581      2.00000
     85       8.1850      2.00000
     86       8.2532      2.00000
     87       8.3313      2.00000
     88       8.3583      2.00000
     89       8.3943      2.00000
     90       8.4318      2.00000
     91       8.4657      2.00000
     92       8.4968      2.00000
     93       8.5243      2.00000
     94       8.5570      2.00000
     95       8.6135      2.00000
     96       8.6239      2.00000
     97       8.6538      2.00000
     98       8.6687      2.00000
     99       8.7031      2.00000
    100       8.7442      2.00000
    101       8.7647      2.00000
    102       8.7793      2.00000
    103       8.8042      2.00000
    104       8.8737      2.00000
    105       8.8878      2.00000
    106       8.9265      2.00000
    107       8.9770      2.00000
    108       9.0015      2.00000
    109       9.0785      2.00000
    110       9.1246      2.00000
    111       9.5147      2.00000
    112      12.0522      0.00000
    113      12.0945      0.00000
    114      12.1631      0.00000
    115      12.2687      0.00000
    116      12.3309      0.00000
    117      12.3738      0.00000
    118      12.4263      0.00000
    119      12.4584      0.00000
    120      12.5558      0.00000
    121      12.6029      0.00000
    122      12.6344      0.00000
    123      12.6980      0.00000
    124      12.7296      0.00000
    125      12.8128      0.00000
    126      12.8944      0.00000
    127      12.9263      0.00000
    128      12.9692      0.00000
    129      13.1073      0.00000
    130      13.1590      0.00000
    131      13.2440      0.00000
    132      13.2770      0.00000

 k-point    63 :       0.4000   -0.4000    0.4000
  band No.  band energies     occupation 
      1     -63.4899      2.00000
      2     -63.4775      2.00000
      3     -63.4288      2.00000
      4     -63.4233      2.00000
      5     -50.4249      2.00000
      6     -50.4121      2.00000
      7     -50.3489      2.00000
      8     -50.3463      2.00000
      9     -50.3193      2.00000
     10     -44.2514      2.00000
     11     -44.2329      2.00000
     12     -44.2127      2.00000
     13     -44.1364      2.00000
     14     -44.1165      2.00000
     15     -44.0965      2.00000
     16     -27.8706      2.00000
     17     -27.7947      2.00000
     18     -27.7849      2.00000
     19     -27.7592      2.00000
     20     -27.7073      2.00000
     21     -27.6787      2.00000
     22     -27.6438      2.00000
     23     -27.6189      2.00000
     24     -27.5453      2.00000
     25     -27.5228      2.00000
     26     -27.5086      2.00000
     27     -27.4505      2.00000
     28     -24.7045      2.00000
     29     -24.6835      2.00000
     30     -24.6615      2.00000
     31     -24.6145      2.00000
     32     -24.5779      2.00000
     33     -24.5474      2.00000
     34     -24.4792      2.00000
     35     -24.4731      2.00000
     36     -24.4343      2.00000
     37     -24.4004      2.00000
     38     -24.3721      2.00000
     39     -24.3267      2.00000
     40     -24.3096      2.00000
     41     -24.2841      2.00000
     42     -24.2597      2.00000
     43     -23.6308      2.00000
     44     -23.6071      2.00000
     45     -23.5779      2.00000
     46     -20.6858      2.00000
     47     -20.6418      2.00000
     48     -20.5756      2.00000
     49     -20.5362      2.00000
     50     -20.4975      2.00000
     51     -20.3968      2.00000
     52     -20.3177      2.00000
     53     -20.3034      2.00000
     54     -20.2831      2.00000
     55     -20.2438      2.00000
     56     -20.2108      2.00000
     57     -20.2036      2.00000
     58     -20.1223      2.00000
     59     -20.0437      2.00000
     60     -20.0144      2.00000
     61     -19.9807      2.00000
     62     -19.9272      2.00000
     63     -19.8898      2.00000
     64       4.9621      2.00000
     65       5.5774      2.00000
     66       5.7723      2.00000
     67       6.2017      2.00000
     68       6.3981      2.00000
     69       6.6461      2.00000
     70       6.8027      2.00000
     71       7.3191      2.00000
     72       7.4318      2.00000
     73       7.4695      2.00000
     74       7.4918      2.00000
     75       7.5353      2.00000
     76       7.5840      2.00000
     77       7.6813      2.00000
     78       7.6947      2.00000
     79       7.7222      2.00000
     80       7.8282      2.00000
     81       7.8490      2.00000
     82       7.9064      2.00000
     83       7.9360      2.00000
     84       8.1639      2.00000
     85       8.1979      2.00000
     86       8.2462      2.00000
     87       8.3418      2.00000
     88       8.3548      2.00000
     89       8.3841      2.00000
     90       8.4426      2.00000
     91       8.4666      2.00000
     92       8.4805      2.00000
     93       8.5064      2.00000
     94       8.5584      2.00000
     95       8.5654      2.00000
     96       8.6108      2.00000
     97       8.6596      2.00000
     98       8.6809      2.00000
     99       8.6960      2.00000
    100       8.7153      2.00000
    101       8.7546      2.00000
    102       8.8140      2.00000
    103       8.8302      2.00000
    104       8.8894      2.00000
    105       8.9180      2.00000
    106       8.9373      2.00000
    107       8.9749      2.00000
    108       9.0189      2.00000
    109       9.0655      2.00000
    110       9.0749      2.00000
    111       9.5333      2.00000
    112      12.0458      0.00000
    113      12.0540      0.00000
    114      12.1640      0.00000
    115      12.2780      0.00000
    116      12.3433      0.00000
    117      12.3777      0.00000
    118      12.4303      0.00000
    119      12.4731      0.00000
    120      12.5507      0.00000
    121      12.5951      0.00000
    122      12.6627      0.00000
    123      12.6941      0.00000
    124      12.7525      0.00000
    125      12.8185      0.00000
    126      12.8953      0.00000
    127      12.9372      0.00000
    128      12.9722      0.00000
    129      13.0526      0.00000
    130      13.1524      0.00000
    131      13.2433      0.00000
    132      13.2948      0.00000


--------------------------------------------------------------------------------------------------------


 soft charge-density along one line, spin component           1
         0         1         2         3         4         5         6         7         8         9
 total charge-density along one line
 
 pseudopotential strength for first ion, spin component:           1
  5.704 -20.039   0.000   0.002  -0.002  -0.001  -0.005   0.004
-20.039   8.979   0.001   0.003  -0.002  -0.000  -0.000   0.000
  0.000   0.001  -9.623  -0.002   0.001   5.818   0.002  -0.001
  0.002   0.003  -0.002  -9.618  -0.001   0.002   5.813   0.001
 -0.002  -0.002   0.001  -0.001  -9.618  -0.001   0.001   5.813
 -0.001  -0.000   5.818   0.002  -0.001   8.062  -0.002   0.000
 -0.005  -0.000   0.002   5.813   0.001  -0.002   8.065  -0.001
  0.004   0.000  -0.001   0.001   5.813   0.000  -0.001   8.065
  0.001   0.000  -0.002   0.000   0.000   0.002   0.000  -0.000
 -0.002  -0.001   0.002   0.000   0.000  -0.003  -0.000   0.000
  0.001   0.000  -0.000   0.002   0.001   0.000  -0.002  -0.001
 -0.001  -0.000   0.000  -0.002   0.002   0.000   0.002  -0.003
  0.002   0.001  -0.000   0.000  -0.001   0.000  -0.000   0.002
  0.001   0.000  -0.002   0.000   0.000   0.003   0.000  -0.000
 -0.002  -0.001   0.003   0.000   0.000  -0.004  -0.000   0.000
  0.002   0.001  -0.000   0.003   0.001   0.000  -0.003  -0.001
 -0.001  -0.000   0.000  -0.002   0.003   0.000   0.003  -0.004
  0.002   0.001  -0.000   0.000  -0.002   0.000  -0.000   0.002
 total augmentation occupancy for first ion, spin component:           1
  1.995  -0.048   0.000   0.000   0.000   0.000   0.000   0.000  -0.005  -0.008   0.002  -0.001   0.003   0.004   0.007  -0.002
 -0.048   1.346   0.001  -0.000   0.002  -0.001  -0.003   0.002   0.015  -0.023   0.024  -0.011   0.039  -0.024   0.006  -0.009
  0.000   0.001   1.996   0.000   0.000  -0.031  -0.001  -0.001   0.006  -0.002  -0.001   0.000  -0.002  -0.004   0.002   0.001
  0.000  -0.000   0.000   1.996  -0.000  -0.001  -0.031   0.000   0.000   0.002   0.007   0.007   0.000  -0.000  -0.001  -0.005
  0.000   0.002   0.000  -0.000   1.996  -0.001   0.000  -0.031   0.002   0.001   0.002  -0.002  -0.003  -0.001  -0.000  -0.001
  0.000  -0.001  -0.031  -0.001  -0.001   0.068   0.001   0.003  -0.005  -0.003   0.001  -0.003   0.002   0.004   0.001  -0.001
  0.000  -0.003  -0.001  -0.031   0.000   0.001   0.071  -0.000  -0.003  -0.005  -0.012  -0.006  -0.000   0.002   0.002   0.005
  0.000   0.002  -0.001   0.000  -0.031   0.003  -0.000   0.070  -0.005  -0.003  -0.005  -0.004   0.008   0.002   0.002   0.002
 -0.005   0.015   0.006   0.000   0.002  -0.005  -0.003  -0.005   3.265  -0.037   0.040  -0.012  -0.000  -1.364   0.023  -0.015
 -0.008  -0.023  -0.002   0.002   0.001  -0.003  -0.005  -0.003  -0.037   3.259  -0.034   0.135   0.057   0.023  -1.363   0.015
  0.002   0.024  -0.001   0.007   0.002   0.001  -0.012  -0.005   0.040  -0.034   2.704  -0.007  -0.048  -0.015   0.015  -1.220
 -0.001  -0.011   0.000   0.007  -0.002  -0.003  -0.006  -0.004  -0.012   0.135  -0.007   3.249  -0.011  -0.002  -0.083   0.003
  0.003   0.039  -0.002   0.000  -0.003   0.002  -0.000   0.008  -0.000   0.057  -0.048  -0.011   2.642  -0.001  -0.024   0.017
  0.004  -0.024  -0.004  -0.000  -0.001   0.004   0.002   0.002  -1.364   0.023  -0.015  -0.002  -0.001   0.581  -0.013   0.006
  0.007   0.006   0.002  -0.001  -0.000   0.001   0.002   0.002   0.023  -1.363   0.015  -0.083  -0.024  -0.013   0.581  -0.007
 -0.002  -0.009   0.001  -0.005  -0.001  -0.001   0.005   0.002  -0.015   0.015  -1.220   0.003   0.017   0.006  -0.007   0.558
  0.001   0.009  -0.000  -0.004   0.001   0.002   0.005   0.001  -0.002  -0.083   0.003  -1.363   0.004   0.004   0.046  -0.001
 -0.003  -0.015   0.001  -0.000   0.002  -0.001   0.000  -0.003   0.000  -0.025   0.017   0.004  -1.198   0.000   0.011  -0.006


------------------------ aborting loop because EDIFF is reached ----------------------------------------


    CHARGE:  cpu time      0.0872: real time      0.0875
    FORLOC:  cpu time      0.0005: real time      0.0005
    FORNL :  cpu time      0.8533: real time      0.8557
    STRESS:  cpu time      1.0453: real time      1.0484
    FORCOR:  cpu time      0.0041: real time      0.0041
    FORHAR:  cpu time      0.0013: real time      0.0015
    MIXING:  cpu time      0.0006: real time      0.0006
    OFIELD:  cpu time      0.0000: real time      0.0000

  FORCE on cell =-STRESS in cart. coord.  units (eV):
  Direction    XX          YY          ZZ          XY          YZ          ZX
  --------------------------------------------------------------------------------------
  Alpha Z  1689.62951  1689.62951  1689.62951
  Ewald   -7675.14000 -7675.67710 -7682.38679    -0.00000    -4.21537     2.10768
  Hartree  1362.55678  1362.53599  1353.38330     0.45283    -2.91824     2.17352
  E(xc)    -999.27385  -999.28683  -999.23537    -0.01073    -0.01506    -0.00736
  Local    1695.64176  1695.92917  1711.83526    -0.72606     6.78081    -4.18842
  n-local  -255.96510  -253.58998  -258.12955     0.96947     0.63415     0.10888
  augment   567.42340   567.29792   567.51338    -0.01600     0.05935    -0.01655
  Kinetic  3583.93538  3582.39928  3586.25083    -0.80852    -0.35036    -0.07792
  Fock        0.00000     0.00000     0.00000     0.00000     0.00000     0.00000
  -------------------------------------------------------------------------------------
  Total     -31.19212   -30.76204   -31.13942    -0.13902    -0.02472     0.09984
  in kB    -175.41946  -173.00075  -175.12310    -0.78180    -0.13900     0.56148
  external pressure =     -174.51 kB  Pullay stress =        0.00 kB


 VOLUME and BASIS-vectors are now :
 -----------------------------------------------------------------------------
  energy-cutoff  :      250.00
  volume of cell :      284.89
      direct lattice vectors                 reciprocal lattice vectors
     6.580000000  0.000000000  0.000000000     0.151975684  0.000000000  0.000000000
     0.000000000  6.580000000  0.000000000     0.000000000  0.151975684  0.000000000
     0.000000000  0.000000000  6.580000000     0.000000000  0.000000000  0.151975684

  length of vectors
     6.580000000  6.580000000  6.580000000     0.151975684  0.151975684  0.151975684


 FORCES acting on ions
    electron-ion (+dipol)            ewald-force                    non-local-force                 convergence-correction
 -----------------------------------------------------------------------------------------------
   -.413E+02 -.204E+02 0.412E+02   0.408E+02 0.204E+02 -.408E+02   0.823E-01 0.584E-01 0.246E-01   -.101E-04 -.308E-04 0.382E-04
   -.413E+02 -.204E+02 -.413E+02   0.408E+02 0.204E+02 0.408E+02   0.133E+00 0.608E-01 0.182E-02   -.185E-04 -.253E-04 -.494E-04
   0.413E+02 -.205E+02 0.413E+02   -.408E+02 0.204E+02 -.408E+02   -.103E+00 0.599E-01 -.342E-01   0.143E-04 -.220E-04 0.472E-04
   -.104E+02 0.313E+02 -.104E+02   0.102E+02 -.306E+02 0.102E+02   0.207E-01 -.172E+00 -.687E-01   -.520E-04 0.305E-04 -.124E-04
   0.104E+02 -.313E+02 0.104E+02   -.102E+02 0.306E+02 -.102E+02   -.395E-01 0.172E+00 0.833E-01   0.489E-04 -.337E-04 -.151E-05
   0.104E+02 -.312E+02 -.103E+02   -.102E+02 0.306E+02 0.102E+02   -.388E-01 0.130E+00 -.865E-01   0.410E-04 -.323E-04 0.118E-04
   0.111E+02 0.334E+02 0.110E+02   -.110E+02 -.329E+02 -.110E+02   0.827E-02 -.409E-02 0.137E+00   0.541E-04 0.290E-04 -.672E-05
   -.443E+02 0.221E+02 -.442E+02   0.439E+02 -.220E+02 0.439E+02   0.275E-01 -.638E-01 -.738E-01   -.564E-05 0.265E-04 -.380E-04
   -.112E+02 0.335E+02 0.110E+02   0.110E+02 -.329E+02 -.110E+02   -.198E-02 -.615E-01 0.108E+00   -.538E-04 0.133E-04 0.110E-05
   0.444E+02 0.220E+02 -.443E+02   -.439E+02 -.220E+02 0.439E+02   -.677E-01 -.659E-01 -.359E-01   0.671E-05 0.195E-04 -.371E-04
   0.443E+02 -.221E+02 -.441E+02   -.439E+02 0.220E+02 0.439E+02   -.227E-02 0.708E-01 -.944E-01   0.157E-04 -.201E-04 -.497E-04
   0.885E+01 0.266E+02 -.885E+01   -.863E+01 -.259E+02 0.863E+01   0.125E-01 -.325E-01 -.737E-01   0.333E-04 0.354E-04 0.646E-05
   -.443E+02 0.220E+02 0.442E+02   0.439E+02 -.220E+02 -.439E+02   -.406E-01 -.158E-01 0.684E-01   0.417E-05 0.289E-04 0.423E-04
   0.443E+02 0.220E+02 0.442E+02   -.439E+02 -.220E+02 -.439E+02   0.756E-01 -.174E-01 0.994E-01   0.455E-05 0.210E-04 0.549E-04
   -.112E+02 -.334E+02 0.111E+02   0.110E+02 0.329E+02 -.110E+02   -.457E-01 -.126E+00 0.687E-01   -.540E-04 -.330E-04 0.736E-05
   -.111E+02 -.334E+02 -.111E+02   0.110E+02 0.329E+02 0.110E+02   -.549E-01 -.161E+00 -.634E-01   -.549E-04 -.274E-04 -.402E-05
 -----------------------------------------------------------------------------------------------
   0.351E-01 0.168E+00 -.600E-01   -.746E-13 0.853E-13 0.000E+00   -.350E-01 -.168E+00 0.600E-01   -.262E-04 -.206E-04 0.104E-04
 
 
 POSITION                                       TOTAL-FORCE (eV/Angst)
 -----------------------------------------------------------------------------------
      0.00000      0.00000      0.00000        -0.380511      0.012225      0.418718
      0.00000      0.00000      3.29000        -0.386985      0.012535     -0.475982
      3.29000      0.00000      0.00000         0.396539      0.005123      0.428097
      4.93500      1.64500      4.93500        -0.206266      0.516534     -0.264346
      1.64500      4.93500      1.64500         0.201064     -0.557851      0.299575
      1.64500      4.93500      4.93500         0.176495     -0.478184     -0.229884
      1.64500      1.64500      1.64500         0.133510      0.475370      0.125463
      0.00000      3.29000      3.29000        -0.327097      0.028335     -0.331745
      4.93500      1.64500      1.64500        -0.174437      0.476268      0.158419
      3.29000      3.29000      3.29000         0.369496      0.015011     -0.361399
      3.29000      0.00000      3.29000         0.342823     -0.043688     -0.305646
      1.64500      1.64500      4.93500         0.237656      0.680340     -0.292803
      0.00000      3.29000      0.00000        -0.378920      0.021101      0.378552
      3.29000      3.29000      0.00000         0.420421      0.028931      0.392150
      4.93500      4.93500      1.64500        -0.221838     -0.613960      0.206833
      4.93500      4.93500      4.93500        -0.201951     -0.578091     -0.146002
 -----------------------------------------------------------------------------------
    total drift:                                0.000004     -0.000005     -0.000004


--------------------------------------------------------------------------------------------------------



  FREE ENERGIE OF THE ION-ELECTRON SYSTEM (eV)
  ---------------------------------------------------
  free  energy   TOTEN  =      -180.11297811 eV

  energy  without entropy=     -180.11014917  energy(sigma->0) =     -180.11156364
 


--------------------------------------------------------------------------------------------------------


    POTLOK:  cpu time      0.0055: real time      0.0055


--------------------------------------------------------------------------------------------------------


     LOOP+:  cpu time    113.7562: real time    114.8998
    4ORBIT:  cpu time      0.0000: real time      0.0000

 total amount of memory used by VASP MPI-rank0    48519. kBytes
=======================================================================

   base      :      30000. kBytes
   nonl-proj :       8332. kBytes
   fftplans  :        456. kBytes
   grid      :        919. kBytes
   one-center:         31. kBytes
   wavefun   :       8781. kBytes
 
  
  
 General timing and accounting informations for this job:
 ========================================================
  
                  Total CPU time used (sec):      117.556
                            User time (sec):      115.594
                          System time (sec):        1.962
                         Elapsed time (sec):      122.287
  
                   Maximum memory used (kb):       90092.
                   Average memory used (kb):          N/A
  
                          Minor page faults:         8668
                          Major page faults:            0
                 Voluntary context switches:          233
