 vasp.6.3.1 04May22 (build Jul 26 2022 04:02:40) complex                        
  
 executed on             LinuxIFC date 2023.11.30  01:58:55
 running on   48 total cores
 distrk:  each k-point on   48 cores,    1 groups
 distr:  one band on NCORE=  12 cores,    4 groups


--------------------------------------------------------------------------------------------------------


 INCAR:
   ISTART = 0
   NWRITE = 2
   PREC = Accurate
   ENCUT = 250
   GGA = PE
   NSW = 0
   ISIF = 2
   ISYM = 2
   NBLOCK = 1
   KBLOCK = 1
   IBRION = -1
   NELM = 80
   EDIFF = 1E-08
   EDIFFG = -0.01
   ALGO = Normal
   LDIAG = .TRUE.
   LREAL = .FALSE.
   ISMEAR = 0
   SIGMA = 0.02
   ICHARG = 2
   LPLANE = .TRUE.
   NPAR = 4
   LSCALU = .FALSE.
   NSIM = 4
   LWAVE = .FALSE.
   LCHARG = .FALSE.
   ICORELEVEL = 1

 POTCAR:    PAW_PBE Nb_sv 25May2007               
 POTCAR:    PAW_PBE Mo_sv 02Feb2006               
 POTCAR:    PAW_PBE Ta_pv 07Sep2000               
 POTCAR:    PAW_PBE W_sv 04Sep2015                
 POTCAR:    PAW_PBE Nb_sv 25May2007               
   SHA256 =  0e8fc07c9fcd1164cf2ade22d0399fd28f85e91cd773dfa6cf24839a48c95e24 Nb_sv/POTCAR          
   COPYR  = (c) Copyright 25May2007 Georg Kresse                                                    
   COPYR  = This file is part of the software VASP. Any use, copying, and all other rights are regul
   COPYR  = If you do not have a valid VASP license, you may not use, copy or distribute this file. 
   VRHFIN =Nb: 4p5s4d                                                                               
   LEXCH  = PE                                                                                      
   EATOM  =  1555.1913 eV,  114.3033 Ry                                                             
                                                                                                    
   TITEL  = PAW_PBE Nb_sv 25May2007                                                                 
   LULTRA =        F    use ultrasoft PP ?                                                          
   IUNSCR =        1    unscreen: 0-lin 1-nonlin 2-no                                               
   RPACOR =    1.800    partial core radius                                                         
   POMASS =   92.910; ZVAL   =   13.000    mass and valenz                                          
   RCORE  =    2.400    outmost cutoff radius                                                       
   RWIGS  =    2.400; RWIGS  =    1.270    wigner-seitz radius (au A)                               
   ENMAX  =  293.235; ENMIN  =  219.927 eV                                                          
   ICORE  =        3    local potential                                                             
   LCOR   =        T    correct aug charges                                                         
   LPAW   =        T    paw PP                                                                      
   EAUG   =  455.659                                                                                
   DEXC   =    0.000                                                                                
   RMAX   =    2.456    core radius for proj-oper                                                   
   RAUG   =    1.300    factor for augmentation sphere                                              
   RDEP   =    2.451    radius for radial grids                                                     
   RDEPT  =    1.956    core radius for aug-charge                                                  
                                                                                                    
   Atomic configuration                                                                             
   11 entries                                                                                       
     n  l   j            E        occ.                                                              
     1  0  0.50    -18805.2457   2.0000                                                             
     2  0  0.50     -2630.2869   2.0000                                                             
     2  1  1.50     -2348.4046   6.0000                                                             
     3  0  0.50      -438.8757   2.0000                                                             
     3  1  1.50      -346.7588   6.0000                                                             
     3  2  2.50      -196.2560  10.0000                                                             
     4  0  0.50       -58.3859   2.0000                                                             
     5  0  0.50        -3.9816   1.0000                                                             
     4  1  1.50       -34.5141   6.0000                                                             
     4  2  2.50        -3.0408   4.0000                                                             
     4  3  2.50        -1.3606   0.0000                                                             
   Description                                                                                      
     l       E           TYP  RCUT    TYP  RCUT                                                     
     0    -58.3859094     23  2.200                                                                 
     0     -3.9816262     23  2.200                                                                 
     1    -34.5140738     23  2.200                                                                 
     1     13.6058260     23  2.200                                                                 
     2     -3.0408010     23  2.200                                                                 
     2     -0.1283038     23  2.200                                                                 
     3     -1.3605826     23  2.400                                                                 
  local pseudopotential read in
  partial core-charges read in
  partial kinetic energy density read in
  atomic valenz-charges read in
  non local Contribution for L=           0  read in
    real space projection operators read in
  non local Contribution for L=           0  read in
    real space projection operators read in
  non local Contribution for L=           1  read in
    real space projection operators read in
  non local Contribution for L=           1  read in
    real space projection operators read in
  non local Contribution for L=           2  read in
    real space projection operators read in
  non local Contribution for L=           2  read in
    real space projection operators read in
    PAW grid and wavefunctions read in
 
   number of l-projection  operators is LMAX  =           6
   number of lm-projection operators is LMMAX =          18
 
 POTCAR:    PAW_PBE Mo_sv 02Feb2006               
   SHA256 =  2731df97e41766cc617548c5a8267718fdef1f509ac6bafa01e745abea2bdfaa Mo_sv/POTCAR          
   COPYR  = (c) Copyright 02Feb2006 Georg Kresse                                                    
   COPYR  = This file is part of the software VASP. Any use, copying, and all other rights are regul
   COPYR  = If you do not have a valid VASP license, you may not use, copy or distribute this file. 
   VRHFIN =Mo: 4p5s4d                                                                               
   LEXCH  = PE                                                                                      
   EATOM  =  1862.2866 eV,  136.8742 Ry                                                             
                                                                                                    
   TITEL  = PAW_PBE Mo_sv 02Feb2006                                                                 
   LULTRA =        F    use ultrasoft PP ?                                                          
   IUNSCR =        1    unscreen: 0-lin 1-nonlin 2-no                                               
   RPACOR =    2.200    partial core radius                                                         
   POMASS =   95.940; ZVAL   =   14.000    mass and valenz                                          
   RCORE  =    2.500    outmost cutoff radius                                                       
   RWIGS  =    2.750; RWIGS  =    1.455    wigner-seitz radius (au A)                               
   ENMAX  =  242.676; ENMIN  =  182.007 eV                                                          
   ICORE  =        3    local potential                                                             
   LCOR   =        T    correct aug charges                                                         
   LPAW   =        T    paw PP                                                                      
   EAUG   =  446.014                                                                                
   DEXC   =    0.000                                                                                
   RMAX   =    2.563    core radius for proj-oper                                                   
   RAUG   =    1.300    factor for augmentation sphere                                              
   RDEP   =    2.641    radius for radial grids                                                     
   RDEPT  =    2.031    core radius for aug-charge                                                  
                                                                                                    
   Atomic configuration                                                                             
   11 entries                                                                                       
     n  l   j            E        occ.                                                              
     1  0  0.50    -19819.0341   2.0000                                                             
     2  0  0.50     -2799.0127   2.0000                                                             
     2  1  1.50     -2502.0276   6.0000                                                             
     3  0  0.50      -476.4449   2.0000                                                             
     3  1  1.50      -379.1496   6.0000                                                             
     3  2  2.50      -220.9367  10.0000                                                             
     4  0  0.50       -64.3378   2.0000                                                             
     5  0  0.50        -4.0862   1.0000                                                             
     4  1  1.50       -38.4773   6.0000                                                             
     4  2  2.50        -3.7535   5.0000                                                             
     4  3  2.50        -1.3606   0.0000                                                             
   Description                                                                                      
     l       E           TYP  RCUT    TYP  RCUT                                                     
     0    -64.3377829     23  2.100                                                                 
     0     -4.0861640     23  2.400                                                                 
     1    -38.4772993     23  2.100                                                                 
     1     13.6058260     23  2.100                                                                 
     2     -3.7534941     23  2.400                                                                 
     2     -5.1140767     23  2.400                                                                 
     3     -4.0817478     23  2.500                                                                 
  local pseudopotential read in
  partial core-charges read in
  partial kinetic energy density read in
  atomic valenz-charges read in
  non local Contribution for L=           0  read in
    real space projection operators read in
  non local Contribution for L=           0  read in
    real space projection operators read in
  non local Contribution for L=           1  read in
    real space projection operators read in
  non local Contribution for L=           1  read in
    real space projection operators read in
  non local Contribution for L=           2  read in
    real space projection operators read in
  non local Contribution for L=           2  read in
    real space projection operators read in
    PAW grid and wavefunctions read in
 
   number of l-projection  operators is LMAX  =           6
   number of lm-projection operators is LMMAX =          18
 
 POTCAR:    PAW_PBE Ta_pv 07Sep2000               
   SHA256 =  00d0a14a36c127416459414afb8617d9754996fffa60a2465888e660b20a452f Ta_pv/POTCAR          
   COPYR  = (c) Copyright 07Sep2000 Georg Kresse                                                    
   COPYR  = This file is part of the software VASP. Any use, copying, and all other rights are regul
   COPYR  = If you do not have a valid VASP license, you may not use, copy or distribute this file. 
   VRHFIN =Ta:  5p6s5d                                                                              
   LEXCH  = PE                                                                                      
   EATOM  =  1047.1984 eV,   76.9669 Ry                                                             
                                                                                                    
   TITEL  = PAW_PBE Ta_pv 07Sep2000                                                                 
   LULTRA =        F    use ultrasoft PP ?                                                          
   IUNSCR =        1    unscreen: 0-lin 1-nonlin 2-no                                               
   RPACOR =    2.330    partial core radius                                                         
   POMASS =  180.948; ZVAL   =   11.000    mass and valenz                                          
   RCORE  =    2.500    outmost cutoff radius                                                       
   RWIGS  =    2.840; RWIGS  =    1.503    wigner-seitz radius (au A)                               
   ENMAX  =  223.667; ENMIN  =  167.750 eV                                                          
   RCLOC  =    2.205    cutoff for local pot                                                        
   LCOR   =        T    correct aug charges                                                         
   LPAW   =        T    paw PP                                                                      
   EAUG   =  377.421                                                                                
   DEXC   =    0.000                                                                                
   RMAX   =    2.551    core radius for proj-oper                                                   
   RAUG   =    1.300    factor for augmentation sphere                                              
   RDEP   =    2.526    radius for radial grids                                                     
   RDEPT  =    2.132    core radius for aug-charge                                                  
                                                                                                    
   Atomic configuration                                                                             
   15 entries                                                                                       
     n  l   j            E        occ.                                                              
     1  0  0.50    -67341.2801   2.0000                                                             
     2  0  0.50    -11566.9369   2.0000                                                             
     2  1  1.50    -10134.1175   6.0000                                                             
     3  0  0.50     -2648.5614   2.0000                                                             
     3  1  1.50     -2222.6006   6.0000                                                             
     3  2  2.50     -1726.3114  10.0000                                                             
     4  0  0.50      -538.6957   2.0000                                                             
     4  1  1.50      -399.0125   6.0000                                                             
     4  2  2.50      -220.3955  10.0000                                                             
     4  3  3.50       -23.0371  14.0000                                                             
     5  0  0.50       -71.2900   2.0000                                                             
     5  1  1.50       -37.8224   6.0000                                                             
     5  2  2.50        -2.6455   4.0000                                                             
     6  0  0.50        -4.9623   1.0000                                                             
     5  3  2.50        -1.3606   0.0000                                                             
   Description                                                                                      
     l       E           TYP  RCUT    TYP  RCUT                                                     
     1    -37.8224449     23  2.500                                                                 
     1      1.3605826     23  2.500                                                                 
     2     -2.6454718     23  2.500                                                                 
     2     -0.6258570     23  2.500                                                                 
     0     -4.9622674     23  2.500                                                                 
     0      4.7531427     23  2.500                                                                 
  local pseudopotential read in
  partial core-charges read in
  partial kinetic energy density read in
  atomic valenz-charges read in
  non local Contribution for L=           1  read in
    real space projection operators read in
  non local Contribution for L=           1  read in
    real space projection operators read in
  non local Contribution for L=           2  read in
    real space projection operators read in
  non local Contribution for L=           2  read in
    real space projection operators read in
  non local Contribution for L=           0  read in
    real space projection operators read in
  non local Contribution for L=           0  read in
    real space projection operators read in
    PAW grid and wavefunctions read in
 
   number of l-projection  operators is LMAX  =           6
   number of lm-projection operators is LMMAX =          18
 
 POTCAR:    PAW_PBE W_sv 04Sep2015                
   SHA256 =  931c2d770f65867ef30f3db3421922900fc0890ebac5c3e12f63b6a2064023d7 W_sv/POTCAR           
   COPYR  = (c) Copyright 04Sep2015 Georg Kresse                                                    
   COPYR  = This file is part of the software VASP. Any use, copying, and all other rights are regul
   COPYR  = If you do not have a valid VASP license, you may not use, copy or distribute this file. 
   VRHFIN =W : 5p6s5d                                                                               
   LEXCH  = PE                                                                                      
   EATOM  =  1865.5791 eV,  137.1162 Ry                                                             
                                                                                                    
   TITEL  = PAW_PBE W_sv 04Sep2015                                                                  
   LULTRA =        F    use ultrasoft PP ?                                                          
   IUNSCR =        1    unscreen: 0-lin 1-nonlin 2-no                                               
   RPACOR =    2.330    partial core radius                                                         
   POMASS =  183.850; ZVAL   =   14.000    mass and valenz                                          
   RCORE  =    2.500    outmost cutoff radius                                                       
   RWIGS  =    2.750; RWIGS  =    1.455    wigner-seitz radius (au A)                               
   ENMAX  =  223.057; ENMIN  =  167.293 eV                                                          
   ICORE  =        3    local potential                                                             
   LCOR   =        T    correct aug charges                                                         
   LPAW   =        T    paw PP                                                                      
   EAUG   =  373.438                                                                                
   DEXC   =    0.000                                                                                
   RMAX   =    2.565    core radius for proj-oper                                                   
   RAUG   =    1.300    factor for augmentation sphere                                              
   RDEP   =    2.539    radius for radial grids                                                     
   RDEPT  =    2.126    core radius for aug-charge                                                  
                                                                                                    
   Atomic configuration                                                                             
   15 entries                                                                                       
     n  l   j            E        occ.                                                              
     1  0  0.50    -69465.5834   2.0000                                                             
     2  0  0.50    -11986.2640   2.0000                                                             
     2  1  1.50    -10479.8613   6.0000                                                             
     3  0  0.50     -2759.0756   2.0000                                                             
     3  1  1.50     -2313.1855   6.0000                                                             
     3  2  2.50     -1801.1183  10.0000                                                             
     4  0  0.50      -567.6789   2.0000                                                             
     4  1  1.50      -421.4692   6.0000                                                             
     4  2  2.50      -236.3471  10.0000                                                             
     4  3  3.50       -31.2665  14.0000                                                             
     5  0  0.50       -77.1084   2.0000                                                             
     6  0  0.50        -5.1438   1.0000                                                             
     5  1  1.50       -41.3856   6.0000                                                             
     5  2  2.50        -3.3185   5.0000                                                             
     5  3  2.50        -1.3606   0.0000                                                             
   Description                                                                                      
     l       E           TYP  RCUT    TYP  RCUT                                                     
     0    -77.1084470     23  2.100                                                                 
     0     -5.1437956     23  2.300                                                                 
     1    -41.3855615     23  2.500                                                                 
     1     -2.7211652     23  2.500                                                                 
     2     -3.3185025     23  2.500                                                                 
     2     -1.5965151     23  2.500                                                                 
     3     -1.3605826     23  2.500                                                                 
  local pseudopotential read in
  partial core-charges read in
  partial kinetic energy density read in
  kinetic energy density of atom read in
  atomic valenz-charges read in
  non local Contribution for L=           0  read in
    real space projection operators read in
  non local Contribution for L=           0  read in
    real space projection operators read in
  non local Contribution for L=           1  read in
    real space projection operators read in
  non local Contribution for L=           1  read in
    real space projection operators read in
  non local Contribution for L=           2  read in
    real space projection operators read in
  non local Contribution for L=           2  read in
    real space projection operators read in
    PAW grid and wavefunctions read in
 
   number of l-projection  operators is LMAX  =           6
   number of lm-projection operators is LMMAX =          18
 
  PAW_PBE Nb_sv 25May2007               :
 energy of atom  1       EATOM=-1555.1913
 kinetic energy error for atom=    0.2155 (will be added to EATOM!!)
  PAW_PBE Mo_sv 02Feb2006               :
 energy of atom  2       EATOM=-1862.2866
 kinetic energy error for atom=    0.1102 (will be added to EATOM!!)
  PAW_PBE Ta_pv 07Sep2000               :
 energy of atom  3       EATOM=-1047.1984
 kinetic energy error for atom=    0.0394 (will be added to EATOM!!)
  PAW_PBE W_sv 04Sep2015                :
 energy of atom  4       EATOM=-1865.5791
 kinetic energy error for atom=    0.0589 (will be added to EATOM!!)
 
 
 POSCAR: Nb-Mo-Ta-W alloy
  positions in direct lattice
  No initial velocities read in
 exchange correlation table for  LEXCH =        8
   RHO(1)=    0.500       N(1)  =     2000
   RHO(2)=  100.500       N(2)  =     4000
 


--------------------------------------------------------------------------------------------------------


 ion  position               nearest neighbor table
   1  0.000  0.500  0.000-   2 2.85   4 2.85   5 2.85  11 2.85  12 2.85  14 2.85  15 2.85  16 2.85
                            10 3.29  10 3.29
   2  0.750  0.750  0.250-   1 2.85   3 2.85   6 2.85   7 2.85   8 2.85   9 2.85  10 2.85  13 2.85

   3  0.500  0.500  0.000-   2 2.85   4 2.85   5 2.85  11 2.85  12 2.85  14 2.85  15 2.85  16 2.85

   4  0.250  0.750  0.250-   1 2.85   3 2.85   6 2.85   7 2.85   8 2.85   9 2.85  10 2.85  13 2.85
                             5 3.29  14 3.29  14 3.29   5 3.29
   5  0.250  0.250  0.250-   1 2.85   3 2.85   6 2.85   7 2.85   8 2.85   9 2.85  10 2.85  13 2.85
                            11 3.29  12 3.29   4 3.29  11 3.29   4 3.29  12 3.29
   6  0.000  0.500  0.500-   2 2.85   4 2.85   5 2.85  11 2.85  12 2.85  14 2.85  15 2.85  16 2.85
                             8 3.29   7 3.29   7 3.29   8 3.29
   7  0.000  0.000  0.500-   2 2.85   4 2.85   5 2.85  11 2.85  12 2.85  14 2.85  15 2.85  16 2.85
                            10 3.29   6 3.29   9 3.29  10 3.29   6 3.29   9 3.29
   8  0.500  0.500  0.500-   2 2.85   4 2.85   5 2.85  11 2.85  12 2.85  14 2.85  15 2.85  16 2.85
                             9 3.29   6 3.29   9 3.29   6 3.29
   9  0.500  0.000  0.500-   2 2.85   4 2.85   5 2.85  11 2.85  12 2.85  14 2.85  15 2.85  16 2.85
                             7 3.29   8 3.29  13 3.29  13 3.29   8 3.29   7 3.29
  10  0.000  0.000  0.000-   2 2.85   4 2.85   5 2.85  11 2.85  12 2.85  14 2.85  15 2.85  16 2.85
                             1 3.29   7 3.29  13 3.29   7 3.29   1 3.29  13 3.29
  11  0.250  0.250  0.750-   1 2.85   3 2.85   6 2.85   7 2.85   8 2.85   9 2.85  10 2.85  13 2.85
                             5 3.29  14 3.29  15 3.29   5 3.29  14 3.29  15 3.29
  12  0.750  0.250  0.250-   1 2.85   3 2.85   6 2.85   7 2.85   8 2.85   9 2.85  10 2.85  13 2.85
                             5 3.29  15 3.29  15 3.29   5 3.29
  13  0.500  0.000  0.000-   2 2.85   4 2.85   5 2.85  11 2.85  12 2.85  14 2.85  15 2.85  16 2.85
                            10 3.29   9 3.29   9 3.29  10 3.29
  14  0.250  0.750  0.750-   1 2.85   3 2.85   6 2.85   7 2.85   8 2.85   9 2.85  10 2.85  13 2.85
                            11 3.29   4 3.29  16 3.29   4 3.29  11 3.29  16 3.29
  15  0.750  0.250  0.750-   1 2.85   3 2.85   6 2.85   7 2.85   8 2.85   9 2.85  10 2.85  13 2.85
                            12 3.29  11 3.29  16 3.29  12 3.29  16 3.29  11 3.29
  16  0.750  0.750  0.750-   1 2.85   3 2.85   6 2.85   7 2.85   8 2.85   9 2.85  10 2.85  13 2.85
                            14 3.29  15 3.29  15 3.29  14 3.29
 
  LATTYP: Found a simple cubic cell.
 ALAT       =     6.5800000000
  
  Lattice vectors:
  
 A1 = (   6.5800000000,   0.0000000000,   0.0000000000)
 A2 = (   0.0000000000,   6.5800000000,   0.0000000000)
 A3 = (   0.0000000000,   0.0000000000,   6.5800000000)


Analysis of symmetry for initial positions (statically):
=====================================================================
 Subroutine PRICEL returns:
 Original cell was already a primitive cell.
 

 Routine SETGRP: Setting up the symmetry group for a 
 simple cubic supercell.


 Subroutine GETGRP returns: Found  1 space group operations
 (whereof  1 operations were pure point group operations)
 out of a pool of 48 trial point group operations.


The static configuration has the point symmetry C_1 .


Analysis of symmetry for dynamics (positions and initial velocities):
=====================================================================
 Subroutine PRICEL returns:
 Original cell was already a primitive cell.
 

 Routine SETGRP: Setting up the symmetry group for a 
 simple cubic supercell.


 Subroutine GETGRP returns: Found  1 space group operations
 (whereof  1 operations were pure point group operations)
 out of a pool of 48 trial point group operations.


The dynamic configuration has the point symmetry C_1 .


 Subroutine INISYM returns: Found  1 space group operations
 (whereof  1 operations are pure point group operations),
 and found     1 'primitive' translations


----------------------------------------------------------------------------------------

                                     Primitive cell                                     

  volume of cell :     284.8903

  direct lattice vectors                    reciprocal lattice vectors
     6.580000000  0.000000000  0.000000000     0.151975684  0.000000000  0.000000000
     0.000000000  6.580000000  0.000000000     0.000000000  0.151975684  0.000000000
     0.000000000  0.000000000  6.580000000     0.000000000  0.000000000  0.151975684

  length of vectors
     6.580000000  6.580000000  6.580000000     0.151975684  0.151975684  0.151975684

  position of ions in fractional coordinates (direct lattice)
     0.000000000  0.500000000  0.000000000
     0.750000000  0.750000000  0.250000000
     0.500000000  0.500000000  0.000000000
     0.250000000  0.750000000  0.250000000
     0.250000000  0.250000000  0.250000000
     0.000000000  0.500000000  0.500000000
     0.000000000  0.000000000  0.500000000
     0.500000000  0.500000000  0.500000000
     0.500000000  0.000000000  0.500000000
     0.000000000  0.000000000  0.000000000
     0.250000000  0.250000000  0.750000000
     0.750000000  0.250000000  0.250000000
     0.500000000  0.000000000  0.000000000
     0.250000000  0.750000000  0.750000000
     0.750000000  0.250000000  0.750000000
     0.750000000  0.750000000  0.750000000

  ion indices of the primitive-cell ions
   primitive index   ion index
                 1           1
                 2           2
                 3           3
                 4           4
                 5           5
                 6           6
                 7           7
                 8           8
                 9           9
                10          10
                11          11
                12          12
                13          13
                14          14
                15          15
                16          16

----------------------------------------------------------------------------------------

 
 
 KPOINTS: K-Spacing Value to Generate K-Mesh: 0.03

Automatic generation of k-mesh.
 Grid dimensions read from file:
 generate k-points for:    5    5    5

 Generating k-lattice:

  Cartesian coordinates                     Fractional coordinates (reciprocal lattice)
     0.030395137  0.000000000  0.000000000     0.200000000  0.000000000  0.000000000
     0.000000000  0.030395137  0.000000000     0.000000000  0.200000000  0.000000000
     0.000000000  0.000000000  0.030395137     0.000000000  0.000000000  0.200000000

  Length of vectors
     0.030395137  0.030395137  0.030395137

  Shift w.r.t. Gamma in fractional coordinates (k-lattice)
     0.000000000  0.000000000  0.000000000

 
 Subroutine IBZKPT returns following result:
 ===========================================
 
 Found     63 irreducible k-points:
 
 Following reciprocal coordinates:
            Coordinates               Weight
  0.000000  0.000000  0.000000      1.000000
  0.200000  0.000000  0.000000      2.000000
  0.000000  0.200000  0.000000      2.000000
  0.000000  0.000000  0.200000      2.000000
  0.400000  0.000000  0.000000      2.000000
  0.000000  0.400000  0.000000      2.000000
  0.000000  0.000000  0.400000      2.000000
  0.200000  0.200000  0.000000      2.000000
  0.000000  0.200000  0.200000      2.000000
  0.200000  0.000000  0.200000      2.000000
 -0.200000  0.200000  0.000000      2.000000
 -0.200000  0.000000  0.200000      2.000000
  0.000000 -0.200000  0.200000      2.000000
  0.400000  0.200000  0.000000      2.000000
  0.000000  0.400000  0.200000      2.000000
  0.200000  0.000000  0.400000      2.000000
 -0.200000  0.400000  0.000000      2.000000
 -0.400000  0.000000  0.200000      2.000000
  0.000000  0.200000  0.400000      2.000000
  0.000000 -0.400000  0.200000      2.000000
 -0.200000  0.000000  0.400000      2.000000
  0.400000  0.000000  0.200000      2.000000
  0.000000 -0.200000  0.400000      2.000000
  0.400000 -0.200000  0.000000      2.000000
  0.200000  0.400000  0.000000      2.000000
  0.400000  0.400000  0.000000      2.000000
  0.000000  0.400000  0.400000      2.000000
  0.400000  0.000000  0.400000      2.000000
 -0.400000  0.400000  0.000000      2.000000
 -0.400000  0.000000  0.400000      2.000000
  0.000000 -0.400000  0.400000      2.000000
  0.200000  0.200000  0.200000      2.000000
 -0.200000  0.200000  0.200000      2.000000
 -0.200000 -0.200000  0.200000      2.000000
  0.200000 -0.200000  0.200000      2.000000
  0.400000  0.200000  0.200000      2.000000
  0.200000  0.400000  0.200000      2.000000
  0.200000  0.200000  0.400000      2.000000
 -0.200000  0.400000  0.200000      2.000000
 -0.400000  0.200000  0.200000      2.000000
 -0.200000  0.200000  0.400000      2.000000
 -0.400000 -0.200000  0.200000      2.000000
 -0.200000 -0.400000  0.200000      2.000000
 -0.200000 -0.200000  0.400000      2.000000
  0.200000 -0.400000  0.200000      2.000000
  0.400000 -0.200000  0.200000      2.000000
  0.200000 -0.200000  0.400000      2.000000
  0.400000  0.400000  0.200000      2.000000
  0.200000  0.400000  0.400000      2.000000
  0.400000  0.200000  0.400000      2.000000
 -0.400000  0.400000  0.200000      2.000000
 -0.400000  0.200000  0.400000      2.000000
 -0.200000  0.400000  0.400000      2.000000
 -0.400000 -0.400000  0.200000      2.000000
 -0.200000 -0.400000  0.400000      2.000000
 -0.400000 -0.200000  0.400000      2.000000
  0.400000 -0.400000  0.200000      2.000000
  0.400000 -0.200000  0.400000      2.000000
  0.200000 -0.400000  0.400000      2.000000
  0.400000  0.400000  0.400000      2.000000
 -0.400000  0.400000  0.400000      2.000000
 -0.400000 -0.400000  0.400000      2.000000
  0.400000 -0.400000  0.400000      2.000000
 
 Following cartesian coordinates:
            Coordinates               Weight
  0.000000  0.000000  0.000000      1.000000
  0.030395  0.000000  0.000000      2.000000
  0.000000  0.030395  0.000000      2.000000
  0.000000  0.000000  0.030395      2.000000
  0.060790  0.000000  0.000000      2.000000
  0.000000  0.060790  0.000000      2.000000
  0.000000  0.000000  0.060790      2.000000
  0.030395  0.030395  0.000000      2.000000
  0.000000  0.030395  0.030395      2.000000
  0.030395  0.000000  0.030395      2.000000
 -0.030395  0.030395  0.000000      2.000000
 -0.030395  0.000000  0.030395      2.000000
  0.000000 -0.030395  0.030395      2.000000
  0.060790  0.030395  0.000000      2.000000
  0.000000  0.060790  0.030395      2.000000
  0.030395  0.000000  0.060790      2.000000
 -0.030395  0.060790  0.000000      2.000000
 -0.060790  0.000000  0.030395      2.000000
  0.000000  0.030395  0.060790      2.000000
  0.000000 -0.060790  0.030395      2.000000
 -0.030395  0.000000  0.060790      2.000000
  0.060790  0.000000  0.030395      2.000000
  0.000000 -0.030395  0.060790      2.000000
  0.060790 -0.030395  0.000000      2.000000
  0.030395  0.060790  0.000000      2.000000
  0.060790  0.060790  0.000000      2.000000
  0.000000  0.060790  0.060790      2.000000
  0.060790  0.000000  0.060790      2.000000
 -0.060790  0.060790  0.000000      2.000000
 -0.060790  0.000000  0.060790      2.000000
  0.000000 -0.060790  0.060790      2.000000
  0.030395  0.030395  0.030395      2.000000
 -0.030395  0.030395  0.030395      2.000000
 -0.030395 -0.030395  0.030395      2.000000
  0.030395 -0.030395  0.030395      2.000000
  0.060790  0.030395  0.030395      2.000000
  0.030395  0.060790  0.030395      2.000000
  0.030395  0.030395  0.060790      2.000000
 -0.030395  0.060790  0.030395      2.000000
 -0.060790  0.030395  0.030395      2.000000
 -0.030395  0.030395  0.060790      2.000000
 -0.060790 -0.030395  0.030395      2.000000
 -0.030395 -0.060790  0.030395      2.000000
 -0.030395 -0.030395  0.060790      2.000000
  0.030395 -0.060790  0.030395      2.000000
  0.060790 -0.030395  0.030395      2.000000
  0.030395 -0.030395  0.060790      2.000000
  0.060790  0.060790  0.030395      2.000000
  0.030395  0.060790  0.060790      2.000000
  0.060790  0.030395  0.060790      2.000000
 -0.060790  0.060790  0.030395      2.000000
 -0.060790  0.030395  0.060790      2.000000
 -0.030395  0.060790  0.060790      2.000000
 -0.060790 -0.060790  0.030395      2.000000
 -0.030395 -0.060790  0.060790      2.000000
 -0.060790 -0.030395  0.060790      2.000000
  0.060790 -0.060790  0.030395      2.000000
  0.060790 -0.030395  0.060790      2.000000
  0.030395 -0.060790  0.060790      2.000000
  0.060790  0.060790  0.060790      2.000000
 -0.060790  0.060790  0.060790      2.000000
 -0.060790 -0.060790  0.060790      2.000000
  0.060790 -0.060790  0.060790      2.000000
 


--------------------------------------------------------------------------------------------------------




 Dimension of arrays:
   k-points           NKPTS =     63   k-points in BZ     NKDIM =     63   number of bands    NBANDS=    132
   number of dos      NEDOS =    301   number of ions     NIONS =     16
   non local maximal  LDIM  =      6   non local SUM 2l+1 LMDIM =     18
   total plane-waves  NPLWV =  46656
   max r-space proj   IRMAX =      1   max aug-charges    IRDMAX=   9546
   dimension x,y,z NGX =    36 NGY =   36 NGZ =   36
   dimension x,y,z NGXF=    72 NGYF=   72 NGZF=   72
   support grid    NGXF=    72 NGYF=   72 NGZF=   72
   ions per type =               3   6   2   5
   NGX,Y,Z   is equivalent  to a cutoff of   9.10,  9.10,  9.10 a.u.
   NGXF,Y,Z  is equivalent  to a cutoff of  18.19, 18.19, 18.19 a.u.

 SYSTEM =  unknown system                          
 POSCAR =  Nb-Mo-Ta-W alloy                        

 Startparameter for this run:
   NWRITE =      2    write-flag & timer
   PREC   = accura    normal or accurate (medium, high low for compatibility)
   ISTART =      0    job   : 0-new  1-cont  2-samecut
   ICHARG =      2    charge: 1-file 2-atom 10-const
   ISPIN  =      1    spin polarized calculation?
   LNONCOLLINEAR =      F non collinear calculations
   LSORBIT =      F    spin-orbit coupling
   INIWAV =      1    electr: 0-lowe 1-rand  2-diag
   LASPH  =      F    aspherical Exc in radial PAW
 Electronic Relaxation 1
   ENCUT  =  250.0 eV  18.37 Ry    4.29 a.u.   8.48  8.48  8.48*2*pi/ulx,y,z
   ENINI  =  250.0     initial cutoff
   ENAUG  =  455.7 eV  augmentation charge cutoff
   NELM   =     80;   NELMIN=  2; NELMDL= -5     # of ELM steps 
   EDIFF  = 0.1E-07   stopping-criterion for ELM
   LREAL  =      F    real-space projection
   NLSPLINE    = F    spline interpolate recip. space projectors
   LCOMPAT=      F    compatible to vasp.4.4
   GGA_COMPAT  = T    GGA compatible to vasp.4.4-vasp.4.6
   LMAXPAW     = -100 max onsite density
   LMAXMIX     =    2 max onsite mixed and CHGCAR
   VOSKOWN=      0    Vosko Wilk Nusair interpolation
   ROPT   =    0.00000   0.00000   0.00000   0.00000
 Ionic relaxation
   EDIFFG = -.1E-01   stopping-criterion for IOM
   NSW    =      0    number of steps for IOM
   NBLOCK =      1;   KBLOCK =      1    inner block; outer block 
   IBRION =     -1    ionic relax: 0-MD 1-quasi-New 2-CG
   NFREE  =      0    steps in history (QN), initial steepest desc. (CG)
   ISIF   =      2    stress and relaxation
   IWAVPR =     10    prediction:  0-non 1-charg 2-wave 3-comb
   ISYM   =      2    0-nonsym 1-usesym 2-fastsym
   LCORR  =      T    Harris-Foulkes like correction to forces

   POTIM  = 0.5000    time-step for ionic-motion
   TEIN   =    0.0    initial temperature
   TEBEG  =    0.0;   TEEND  =   0.0 temperature during run
   SMASS  =  -3.00    Nose mass-parameter (am)
   estimated Nose-frequenzy (Omega)   =  0.10E-29 period in steps = 0.13E+47 mass=  -0.989E-27a.u.
   SCALEE = 1.0000    scale energy and forces
   NPACO  =    256;   APACO  = 10.0  distance and # of slots for P.C.
   PSTRESS=    0.0 pullay stress

  Mass of Ions in am
   POMASS =  92.91 95.94180.95183.85
  Ionic Valenz
   ZVAL   =  13.00 14.00 11.00 14.00
  Atomic Wigner-Seitz radii
   RWIGS  =  -1.00 -1.00 -1.00 -1.00
  virtual crystal weights 
   VCA    =   1.00  1.00  1.00  1.00
   NELECT =     215.0000    total number of electrons
   NUPDOWN=      -1.0000    fix difference up-down

 DOS related values:
   EMIN   =  10.00;   EMAX   =-10.00  energy-range for DOS
   EFERMI =   0.00
   ISMEAR =     0;   SIGMA  =   0.02  broadening in eV -4-tet -1-fermi 0-gaus

 Electronic relaxation 2 (details)
   IALGO  =     38    algorithm
   LDIAG  =      T    sub-space diagonalisation (order eigenvalues)
   LSUBROT=      F    optimize rotation matrix (better conditioning)
   TURBO    =      0    0=normal 1=particle mesh
   IRESTART =      0    0=no restart 2=restart with 2 vectors
   NREBOOT  =      0    no. of reboots
   NMIN     =      0    reboot dimension
   EREF     =   0.00    reference energy to select bands
   IMIX   =      4    mixing-type and parameters
     AMIX     =   0.40;   BMIX     =  1.00
     AMIX_MAG =   1.60;   BMIX_MAG =  1.00
     AMIN     =   0.10
     WC   =   100.;   INIMIX=   1;  MIXPRE=   1;  MAXMIX= -45

 Intra band minimization:
   WEIMIN = 0.0000     energy-eigenvalue tresh-hold
   EBREAK =  0.19E-10  absolut break condition
   DEPER  =   0.30     relativ break condition  

   TIME   =   0.40     timestep for ELM

  volume/ion in A,a.u.               =      17.81       120.16
  Fermi-wavevector in a.u.,A,eV,Ry     =   1.490488  2.816614 30.226075  2.221554
  Thomas-Fermi vector in A             =   2.603263
 
 Write flags
   LWAVE        =      F    write WAVECAR
   LDOWNSAMPLE  =      F    k-point downsampling of WAVECAR
   LCHARG       =      F    write CHGCAR
   LVTOT        =      F    write LOCPOT, total local potential
   LVHAR        =      F    write LOCPOT, Hartree potential only
   LELF         =      F    write electronic localiz. function (ELF)
   LORBIT       =      0    0 simple, 1 ext, 2 COOP (PROOUT), +10 PAW based schemes


 Dipole corrections
   LMONO  =      F    monopole corrections only (constant potential shift)
   LDIPOL =      F    correct potential (dipole corrections)
   IDIPOL =      0    1-x, 2-y, 3-z, 4-all directions 
   EPSILON=  1.0000000 bulk dielectric constant

 Core level calculations are selected ICORELEVEL =  1
 Exchange correlation treatment:
   GGA     =    PE    GGA type
   LEXCH   =     8    internal setting for exchange type
   LIBXC   =     F    Libxc                    
   VOSKOWN =     0    Vosko Wilk Nusair interpolation
   LHFCALC =     F    Hartree Fock is set to
   LHFONE  =     F    Hartree Fock one center treatment
   AEXX    =    0.0000 exact exchange contribution

 Linear response parameters
   LEPSILON=     F    determine dielectric tensor
   LRPA    =     F    only Hartree local field effects (RPA)
   LNABLA  =     F    use nabla operator in PAW spheres
   LVEL    =     F    velocity operator in full k-point grid
   CSHIFT  =0.1000    complex shift for real part using Kramers Kronig
   OMEGAMAX=  -1.0    maximum frequency
   DEG_THRESHOLD= 0.2000000E-02 threshold for treating states as degnerate
   RTIME   =   -0.100 relaxation time in fs
  (WPLASMAI=    0.000 imaginary part of plasma frequency in eV, 0.658/RTIME)
   DFIELD  = 0.0000000 0.0000000 0.0000000 field for delta impulse in time
 
  Optional k-point grid parameters
   LKPOINTS_OPT  =     F    use optional k-point grid
   KPOINTS_OPT_MODE=     1    mode for optional k-point grid
 
 Orbital magnetization related:
   ORBITALMAG=     F  switch on orbital magnetization
   LCHIMAG   =     F  perturbation theory with respect to B field
   DQ        =  0.001000  dq finite difference perturbation B field
   LLRAUG    =     F  two centre corrections for induced B field



--------------------------------------------------------------------------------------------------------


 Static calculation
 charge density and potential will be updated during run
 non-spin polarized calculation
 Variant of blocked Davidson
 Davidson routine will perform the subspace rotation
 perform sub-space diagonalisation
    after iterative eigenvector-optimisation
 modified Broyden-mixing scheme, WC =      100.0
 initial mixing is a Kerker type mixing with AMIX =  0.4000 and BMIX =      1.0000
 Hartree-type preconditioning will be used
 using additional bands           24
 reciprocal scheme for non local part
 use partial core corrections
 calculate Harris-corrections to forces 
   (improved forces if not selfconsistent)
 use gradient corrections 
 use of overlap-Matrix (Vanderbilt PP)
 Gauss-broadening in eV      SIGMA  =   0.02


--------------------------------------------------------------------------------------------------------


  energy-cutoff  :      250.00
  volume of cell :      284.89
      direct lattice vectors                 reciprocal lattice vectors
     6.580000000  0.000000000  0.000000000     0.151975684  0.000000000  0.000000000
     0.000000000  6.580000000  0.000000000     0.000000000  0.151975684  0.000000000
     0.000000000  0.000000000  6.580000000     0.000000000  0.000000000  0.151975684

  length of vectors
     6.580000000  6.580000000  6.580000000     0.151975684  0.151975684  0.151975684


 
 k-points in units of 2pi/SCALE and weight: K-Spacing Value to Generate K-Mesh: 0.03
   0.00000000  0.00000000  0.00000000       0.008
   0.03039514  0.00000000  0.00000000       0.016
   0.00000000  0.03039514  0.00000000       0.016
   0.00000000  0.00000000  0.03039514       0.016
   0.06079027  0.00000000  0.00000000       0.016
   0.00000000  0.06079027  0.00000000       0.016
   0.00000000  0.00000000  0.06079027       0.016
   0.03039514  0.03039514  0.00000000       0.016
   0.00000000  0.03039514  0.03039514       0.016
   0.03039514  0.00000000  0.03039514       0.016
  -0.03039514  0.03039514  0.00000000       0.016
  -0.03039514  0.00000000  0.03039514       0.016
   0.00000000 -0.03039514  0.03039514       0.016
   0.06079027  0.03039514  0.00000000       0.016
   0.00000000  0.06079027  0.03039514       0.016
   0.03039514  0.00000000  0.06079027       0.016
  -0.03039514  0.06079027  0.00000000       0.016
  -0.06079027  0.00000000  0.03039514       0.016
   0.00000000  0.03039514  0.06079027       0.016
   0.00000000 -0.06079027  0.03039514       0.016
  -0.03039514  0.00000000  0.06079027       0.016
   0.06079027  0.00000000  0.03039514       0.016
   0.00000000 -0.03039514  0.06079027       0.016
   0.06079027 -0.03039514  0.00000000       0.016
   0.03039514  0.06079027  0.00000000       0.016
   0.06079027  0.06079027  0.00000000       0.016
   0.00000000  0.06079027  0.06079027       0.016
   0.06079027  0.00000000  0.06079027       0.016
  -0.06079027  0.06079027  0.00000000       0.016
  -0.06079027  0.00000000  0.06079027       0.016
   0.00000000 -0.06079027  0.06079027       0.016
   0.03039514  0.03039514  0.03039514       0.016
  -0.03039514  0.03039514  0.03039514       0.016
  -0.03039514 -0.03039514  0.03039514       0.016
   0.03039514 -0.03039514  0.03039514       0.016
   0.06079027  0.03039514  0.03039514       0.016
   0.03039514  0.06079027  0.03039514       0.016
   0.03039514  0.03039514  0.06079027       0.016
  -0.03039514  0.06079027  0.03039514       0.016
  -0.06079027  0.03039514  0.03039514       0.016
  -0.03039514  0.03039514  0.06079027       0.016
  -0.06079027 -0.03039514  0.03039514       0.016
  -0.03039514 -0.06079027  0.03039514       0.016
  -0.03039514 -0.03039514  0.06079027       0.016
   0.03039514 -0.06079027  0.03039514       0.016
   0.06079027 -0.03039514  0.03039514       0.016
   0.03039514 -0.03039514  0.06079027       0.016
   0.06079027  0.06079027  0.03039514       0.016
   0.03039514  0.06079027  0.06079027       0.016
   0.06079027  0.03039514  0.06079027       0.016
  -0.06079027  0.06079027  0.03039514       0.016
  -0.06079027  0.03039514  0.06079027       0.016
  -0.03039514  0.06079027  0.06079027       0.016
  -0.06079027 -0.06079027  0.03039514       0.016
  -0.03039514 -0.06079027  0.06079027       0.016
  -0.06079027 -0.03039514  0.06079027       0.016
   0.06079027 -0.06079027  0.03039514       0.016
   0.06079027 -0.03039514  0.06079027       0.016
   0.03039514 -0.06079027  0.06079027       0.016
   0.06079027  0.06079027  0.06079027       0.016
  -0.06079027  0.06079027  0.06079027       0.016
  -0.06079027 -0.06079027  0.06079027       0.016
   0.06079027 -0.06079027  0.06079027       0.016
 
 k-points in reciprocal lattice and weights: K-Spacing Value to Generate K-Mesh: 0.03
   0.00000000  0.00000000  0.00000000       0.008
   0.20000000  0.00000000  0.00000000       0.016
   0.00000000  0.20000000  0.00000000       0.016
   0.00000000  0.00000000  0.20000000       0.016
   0.40000000  0.00000000  0.00000000       0.016
   0.00000000  0.40000000  0.00000000       0.016
   0.00000000  0.00000000  0.40000000       0.016
   0.20000000  0.20000000  0.00000000       0.016
   0.00000000  0.20000000  0.20000000       0.016
   0.20000000  0.00000000  0.20000000       0.016
  -0.20000000  0.20000000  0.00000000       0.016
  -0.20000000  0.00000000  0.20000000       0.016
   0.00000000 -0.20000000  0.20000000       0.016
   0.40000000  0.20000000  0.00000000       0.016
   0.00000000  0.40000000  0.20000000       0.016
   0.20000000  0.00000000  0.40000000       0.016
  -0.20000000  0.40000000  0.00000000       0.016
  -0.40000000  0.00000000  0.20000000       0.016
   0.00000000  0.20000000  0.40000000       0.016
   0.00000000 -0.40000000  0.20000000       0.016
  -0.20000000  0.00000000  0.40000000       0.016
   0.40000000  0.00000000  0.20000000       0.016
   0.00000000 -0.20000000  0.40000000       0.016
   0.40000000 -0.20000000  0.00000000       0.016
   0.20000000  0.40000000  0.00000000       0.016
   0.40000000  0.40000000  0.00000000       0.016
   0.00000000  0.40000000  0.40000000       0.016
   0.40000000  0.00000000  0.40000000       0.016
  -0.40000000  0.40000000  0.00000000       0.016
  -0.40000000  0.00000000  0.40000000       0.016
   0.00000000 -0.40000000  0.40000000       0.016
   0.20000000  0.20000000  0.20000000       0.016
  -0.20000000  0.20000000  0.20000000       0.016
  -0.20000000 -0.20000000  0.20000000       0.016
   0.20000000 -0.20000000  0.20000000       0.016
   0.40000000  0.20000000  0.20000000       0.016
   0.20000000  0.40000000  0.20000000       0.016
   0.20000000  0.20000000  0.40000000       0.016
  -0.20000000  0.40000000  0.20000000       0.016
  -0.40000000  0.20000000  0.20000000       0.016
  -0.20000000  0.20000000  0.40000000       0.016
  -0.40000000 -0.20000000  0.20000000       0.016
  -0.20000000 -0.40000000  0.20000000       0.016
  -0.20000000 -0.20000000  0.40000000       0.016
   0.20000000 -0.40000000  0.20000000       0.016
   0.40000000 -0.20000000  0.20000000       0.016
   0.20000000 -0.20000000  0.40000000       0.016
   0.40000000  0.40000000  0.20000000       0.016
   0.20000000  0.40000000  0.40000000       0.016
   0.40000000  0.20000000  0.40000000       0.016
  -0.40000000  0.40000000  0.20000000       0.016
  -0.40000000  0.20000000  0.40000000       0.016
  -0.20000000  0.40000000  0.40000000       0.016
  -0.40000000 -0.40000000  0.20000000       0.016
  -0.20000000 -0.40000000  0.40000000       0.016
  -0.40000000 -0.20000000  0.40000000       0.016
   0.40000000 -0.40000000  0.20000000       0.016
   0.40000000 -0.20000000  0.40000000       0.016
   0.20000000 -0.40000000  0.40000000       0.016
   0.40000000  0.40000000  0.40000000       0.016
  -0.40000000  0.40000000  0.40000000       0.016
  -0.40000000 -0.40000000  0.40000000       0.016
   0.40000000 -0.40000000  0.40000000       0.016
 
 position of ions in fractional coordinates (direct lattice) 
   0.00000000  0.50000000  0.00000000
   0.75000000  0.75000000  0.25000000
   0.50000000  0.50000000  0.00000000
   0.25000000  0.75000000  0.25000000
   0.25000000  0.25000000  0.25000000
   0.00000000  0.50000000  0.50000000
   0.00000000  0.00000000  0.50000000
   0.50000000  0.50000000  0.50000000
   0.50000000  0.00000000  0.50000000
   0.00000000  0.00000000  0.00000000
   0.25000000  0.25000000  0.75000000
   0.75000000  0.25000000  0.25000000
   0.50000000  0.00000000  0.00000000
   0.25000000  0.75000000  0.75000000
   0.75000000  0.25000000  0.75000000
   0.75000000  0.75000000  0.75000000
 
 position of ions in cartesian coordinates  (Angst):
   0.00000000  3.29000000  0.00000000
   4.93500000  4.93500000  1.64500000
   3.29000000  3.29000000  0.00000000
   1.64500000  4.93500000  1.64500000
   1.64500000  1.64500000  1.64500000
   0.00000000  3.29000000  3.29000000
   0.00000000  0.00000000  3.29000000
   3.29000000  3.29000000  3.29000000
   3.29000000  0.00000000  3.29000000
   0.00000000  0.00000000  0.00000000
   1.64500000  1.64500000  4.93500000
   4.93500000  1.64500000  1.64500000
   3.29000000  0.00000000  0.00000000
   1.64500000  4.93500000  4.93500000
   4.93500000  1.64500000  4.93500000
   4.93500000  4.93500000  4.93500000
 


--------------------------------------------------------------------------------------------------------


 k-point   1 :   0.0000 0.0000 0.0000  plane waves:    2517
 k-point   2 :   0.2000 0.0000 0.0000  plane waves:    2545
 k-point   3 :   0.0000 0.2000 0.0000  plane waves:    2545
 k-point   4 :   0.0000 0.0000 0.2000  plane waves:    2545
 k-point   5 :   0.4000 0.0000 0.0000  plane waves:    2569
 k-point   6 :   0.0000 0.4000 0.0000  plane waves:    2569
 k-point   7 :   0.0000 0.0000 0.4000  plane waves:    2569
 k-point   8 :   0.2000 0.2000 0.0000  plane waves:    2562
 k-point   9 :   0.0000 0.2000 0.2000  plane waves:    2562
 k-point  10 :   0.2000 0.0000 0.2000  plane waves:    2562
 k-point  11 :  -0.2000 0.2000 0.0000  plane waves:    2562
 k-point  12 :  -0.2000 0.0000 0.2000  plane waves:    2562
 k-point  13 :   0.0000-0.2000 0.2000  plane waves:    2562
 k-point  14 :   0.4000 0.2000 0.0000  plane waves:    2566
 k-point  15 :   0.0000 0.4000 0.2000  plane waves:    2566
 k-point  16 :   0.2000 0.0000 0.4000  plane waves:    2566
 k-point  17 :  -0.2000 0.4000 0.0000  plane waves:    2566
 k-point  18 :  -0.4000 0.0000 0.2000  plane waves:    2566
 k-point  19 :   0.0000 0.2000 0.4000  plane waves:    2566
 k-point  20 :   0.0000-0.4000 0.2000  plane waves:    2566
 k-point  21 :  -0.2000 0.0000 0.4000  plane waves:    2566
 k-point  22 :   0.4000 0.0000 0.2000  plane waves:    2566
 k-point  23 :   0.0000-0.2000 0.4000  plane waves:    2566
 k-point  24 :   0.4000-0.2000 0.0000  plane waves:    2566
 k-point  25 :   0.2000 0.4000 0.0000  plane waves:    2566
 k-point  26 :   0.4000 0.4000 0.0000  plane waves:    2570
 k-point  27 :   0.0000 0.4000 0.4000  plane waves:    2570
 k-point  28 :   0.4000 0.0000 0.4000  plane waves:    2570
 k-point  29 :  -0.4000 0.4000 0.0000  plane waves:    2570
 k-point  30 :  -0.4000 0.0000 0.4000  plane waves:    2570
 k-point  31 :   0.0000-0.4000 0.4000  plane waves:    2570
 k-point  32 :   0.2000 0.2000 0.2000  plane waves:    2572
 k-point  33 :  -0.2000 0.2000 0.2000  plane waves:    2572
 k-point  34 :  -0.2000-0.2000 0.2000  plane waves:    2572
 k-point  35 :   0.2000-0.2000 0.2000  plane waves:    2572
 k-point  36 :   0.4000 0.2000 0.2000  plane waves:    2546
 k-point  37 :   0.2000 0.4000 0.2000  plane waves:    2546
 k-point  38 :   0.2000 0.2000 0.4000  plane waves:    2546
 k-point  39 :  -0.2000 0.4000 0.2000  plane waves:    2546
 k-point  40 :  -0.4000 0.2000 0.2000  plane waves:    2546
 k-point  41 :  -0.2000 0.2000 0.4000  plane waves:    2546
 k-point  42 :  -0.4000-0.2000 0.2000  plane waves:    2546
 k-point  43 :  -0.2000-0.4000 0.2000  plane waves:    2546
 k-point  44 :  -0.2000-0.2000 0.4000  plane waves:    2546
 k-point  45 :   0.2000-0.4000 0.2000  plane waves:    2546
 k-point  46 :   0.4000-0.2000 0.2000  plane waves:    2546
 k-point  47 :   0.2000-0.2000 0.4000  plane waves:    2546
 k-point  48 :   0.4000 0.4000 0.2000  plane waves:    2549
 k-point  49 :   0.2000 0.4000 0.4000  plane waves:    2549
 k-point  50 :   0.4000 0.2000 0.4000  plane waves:    2549
 k-point  51 :  -0.4000 0.4000 0.2000  plane waves:    2549
 k-point  52 :  -0.4000 0.2000 0.4000  plane waves:    2549
 k-point  53 :  -0.2000 0.4000 0.4000  plane waves:    2549
 k-point  54 :  -0.4000-0.4000 0.2000  plane waves:    2549
 k-point  55 :  -0.2000-0.4000 0.4000  plane waves:    2549
 k-point  56 :  -0.4000-0.2000 0.4000  plane waves:    2549
 k-point  57 :   0.4000-0.4000 0.2000  plane waves:    2549
 k-point  58 :   0.4000-0.2000 0.4000  plane waves:    2549
 k-point  59 :   0.2000-0.4000 0.4000  plane waves:    2549
 k-point  60 :   0.4000 0.4000 0.4000  plane waves:    2533
 k-point  61 :  -0.4000 0.4000 0.4000  plane waves:    2533
 k-point  62 :  -0.4000-0.4000 0.4000  plane waves:    2533
 k-point  63 :   0.4000-0.4000 0.4000  plane waves:    2533

 maximum and minimum number of plane-waves per node :       235      194

 maximum number of plane-waves:      2572
 maximum index in each direction: 
   IXMAX=    8   IYMAX=    8   IZMAX=    8
   IXMIN=   -8   IYMIN=   -8   IZMIN=   -8


 parallel 3D FFT for wavefunctions:
    minimum data exchange during FFTs selected (reduces bandwidth)
 parallel 3D FFT for charge:
    minimum data exchange during FFTs selected (reduces bandwidth)


 total amount of memory used by VASP MPI-rank0    48519. kBytes
=======================================================================

   base      :      30000. kBytes
   nonl-proj :       8332. kBytes
   fftplans  :        456. kBytes
   grid      :        919. kBytes
   one-center:         31. kBytes
   wavefun   :       8781. kBytes
 
     INWAV:  cpu time      0.0000: real time      0.0002
 Broyden mixing: mesh for mixing (old mesh)
   NGX = 17   NGY = 17   NGZ = 17
  (NGX  = 72   NGY  = 72   NGZ  = 72)
  gives a total of   4913 points

 initial charge density was supplied:
 charge density of overlapping atoms calculated
 number of electron     215.0000000 magnetization 
 keeping initial charge density in first step


--------------------------------------------------------------------------------------------------------


 Maximum index for augmentation-charges          517 (set IRDMAX)


--------------------------------------------------------------------------------------------------------


 First call to EWALD:  gamma=   0.269
 Maximum number of real-space cells 3x 3x 3
 Maximum number of reciprocal cells 3x 3x 3

    FEWALD:  cpu time      0.0012: real time      0.0012


--------------------------------------- Iteration      1(   1)  ---------------------------------------


    POTLOK:  cpu time      0.0954: real time      0.1825
    SETDIJ:  cpu time      0.0031: real time      0.0032
     EDDAV:  cpu time      3.3507: real time      3.3647
       DOS:  cpu time      0.0057: real time      0.0057
    --------------------------------------------
      LOOP:  cpu time      3.4548: real time      3.5562

 eigenvalue-minimisations  : 17304
 total energy-change (2. order) : 0.2054418E+04  (-0.8555196E+04)
 number of electron     215.0000000 magnetization 
 augmentation part      215.0000000 magnetization 

 Free energy of the ion-electron system (eV)
  ---------------------------------------------------
  alpha Z        PSCENC =      1815.78141327
  Ewald energy   TEWEN  =    -23052.54625795
  -Hartree energ DENC   =     -4459.53619549
  -exchange      EXHF   =         0.00000000
  -V(xc)+E(xc)   XCENC  =       901.47128274
  PAW double counting   =     21647.52649830   -21333.86155858
  entropy T*S    EENTRO =        -0.00126667
  eigenvalues    EBANDS =      -724.32032840
  atomic energy  EATOM  =     27259.90440996
  Solvation  Ediel_sol  =         0.00000000
  ---------------------------------------------------
  free energy    TOTEN  =      2054.41799718 eV

  energy without entropy =     2054.41926384  energy(sigma->0) =     2054.41863051


--------------------------------------------------------------------------------------------------------




--------------------------------------- Iteration      1(   2)  ---------------------------------------


     EDDAV:  cpu time      4.9773: real time      5.0014
       DOS:  cpu time      0.0046: real time      0.0047
    --------------------------------------------
      LOOP:  cpu time      4.9819: real time      5.0060

 eigenvalue-minimisations  : 17228
 total energy-change (2. order) :-0.2077599E+04  (-0.2010925E+04)
 number of electron     215.0000000 magnetization 
 augmentation part      215.0000000 magnetization 

 Free energy of the ion-electron system (eV)
  ---------------------------------------------------
  alpha Z        PSCENC =      1815.78141327
  Ewald energy   TEWEN  =    -23052.54625795
  -Hartree energ DENC   =     -4459.53619549
  -exchange      EXHF   =         0.00000000
  -V(xc)+E(xc)   XCENC  =       901.47128274
  PAW double counting   =     21647.52649830   -21333.86155858
  entropy T*S    EENTRO =        -0.00169236
  eigenvalues    EBANDS =     -2801.91889724
  atomic energy  EATOM  =     27259.90440996
  Solvation  Ediel_sol  =         0.00000000
  ---------------------------------------------------
  free energy    TOTEN  =       -23.18099736 eV

  energy without entropy =      -23.17930499  energy(sigma->0) =      -23.18015118


--------------------------------------------------------------------------------------------------------




--------------------------------------- Iteration      1(   3)  ---------------------------------------


     EDDAV:  cpu time      4.4798: real time      4.5013
       DOS:  cpu time      0.0050: real time      0.0050
    --------------------------------------------
      LOOP:  cpu time      4.4848: real time      4.5063

 eigenvalue-minimisations  : 24352
 total energy-change (2. order) :-0.1624099E+03  (-0.1536899E+03)
 number of electron     215.0000000 magnetization 
 augmentation part      215.0000000 magnetization 

 Free energy of the ion-electron system (eV)
  ---------------------------------------------------
  alpha Z        PSCENC =      1815.78141327
  Ewald energy   TEWEN  =    -23052.54625795
  -Hartree energ DENC   =     -4459.53619549
  -exchange      EXHF   =         0.00000000
  -V(xc)+E(xc)   XCENC  =       901.47128274
  PAW double counting   =     21647.52649830   -21333.86155858
  entropy T*S    EENTRO =        -0.00118300
  eigenvalues    EBANDS =     -2964.32931638
  atomic energy  EATOM  =     27259.90440996
  Solvation  Ediel_sol  =         0.00000000
  ---------------------------------------------------
  free energy    TOTEN  =      -185.59090714 eV

  energy without entropy =     -185.58972414  energy(sigma->0) =     -185.59031564


--------------------------------------------------------------------------------------------------------




--------------------------------------- Iteration      1(   4)  ---------------------------------------


     EDDAV:  cpu time      4.1821: real time      4.1992
       DOS:  cpu time      0.0047: real time      0.0047
    --------------------------------------------
      LOOP:  cpu time      4.1868: real time      4.2040

 eigenvalue-minimisations  : 23528
 total energy-change (2. order) :-0.9293594E+01  (-0.9083056E+01)
 number of electron     215.0000000 magnetization 
 augmentation part      215.0000000 magnetization 

 Free energy of the ion-electron system (eV)
  ---------------------------------------------------
  alpha Z        PSCENC =      1815.78141327
  Ewald energy   TEWEN  =    -23052.54625795
  -Hartree energ DENC   =     -4459.53619549
  -exchange      EXHF   =         0.00000000
  -V(xc)+E(xc)   XCENC  =       901.47128274
  PAW double counting   =     21647.52649830   -21333.86155858
  entropy T*S    EENTRO =        -0.00114122
  eigenvalues    EBANDS =     -2973.62295232
  atomic energy  EATOM  =     27259.90440996
  Solvation  Ediel_sol  =         0.00000000
  ---------------------------------------------------
  free energy    TOTEN  =      -194.88450130 eV

  energy without entropy =     -194.88336008  energy(sigma->0) =     -194.88393069


--------------------------------------------------------------------------------------------------------




--------------------------------------- Iteration      1(   5)  ---------------------------------------


     EDDAV:  cpu time      4.6359: real time      4.6800
       DOS:  cpu time      0.0055: real time      0.0056
    CHARGE:  cpu time      0.0904: real time      0.0908
    MIXING:  cpu time      0.0003: real time      0.0003
    --------------------------------------------
      LOOP:  cpu time      4.7322: real time      4.7767

 eigenvalue-minimisations  : 26896
 total energy-change (2. order) :-0.6015623E+00  (-0.5975597E+00)
 number of electron     214.9999801 magnetization 
 augmentation part       43.9809119 magnetization 

 Broyden mixing:
  rms(total) = 0.52501E+01    rms(broyden)= 0.52487E+01
  rms(prec ) = 0.58457E+01
  weight for this iteration     100.00

 Free energy of the ion-electron system (eV)
  ---------------------------------------------------
  alpha Z        PSCENC =      1815.78141327
  Ewald energy   TEWEN  =    -23052.54625795
  -Hartree energ DENC   =     -4459.53619549
  -exchange      EXHF   =         0.00000000
  -V(xc)+E(xc)   XCENC  =       901.47128274
  PAW double counting   =     21647.52649830   -21333.86155858
  entropy T*S    EENTRO =        -0.00107731
  eigenvalues    EBANDS =     -2974.22457854
  atomic energy  EATOM  =     27259.90440996
  Solvation  Ediel_sol  =         0.00000000
  ---------------------------------------------------
  free energy    TOTEN  =      -195.48606360 eV

  energy without entropy =     -195.48498630  energy(sigma->0) =     -195.48552495


--------------------------------------------------------------------------------------------------------




--------------------------------------- Iteration      1(   6)  ---------------------------------------


    POTLOK:  cpu time      0.0051: real time      0.0054
    SETDIJ:  cpu time      0.0018: real time      0.0018
     EDDAV:  cpu time      3.6323: real time      3.6468
       DOS:  cpu time      0.0049: real time      0.0050
    CHARGE:  cpu time      0.0904: real time      0.0907
    MIXING:  cpu time      0.0003: real time      0.0003
    --------------------------------------------
      LOOP:  cpu time      3.7349: real time      3.7500

 eigenvalue-minimisations  : 19456
 total energy-change (2. order) : 0.8636768E+01  (-0.2290447E+01)
 number of electron     214.9999786 magnetization 
 augmentation part       45.9010224 magnetization 

 Broyden mixing:
  rms(total) = 0.17889E+01    rms(broyden)= 0.17885E+01
  rms(prec ) = 0.22654E+01
  weight for this iteration     100.00

 eigenvalues of (default mixing * dielectric matrix)
  average eigenvalue GAMMA=   1.3768
  1.3768

 Free energy of the ion-electron system (eV)
  ---------------------------------------------------
  alpha Z        PSCENC =      1815.78141327
  Ewald energy   TEWEN  =    -23052.54625795
  -Hartree energ DENC   =     -4208.74439873
  -exchange      EXHF   =         0.00000000
  -V(xc)+E(xc)   XCENC  =       889.11082004
  PAW double counting   =     24757.37639271   -24476.75152892
  entropy T*S    EENTRO =        -0.00202394
  eigenvalues    EBANDS =     -3170.97812172
  atomic energy  EATOM  =     27259.90440996
  Solvation  Ediel_sol  =         0.00000000
  ---------------------------------------------------
  free energy    TOTEN  =      -186.84929529 eV

  energy without entropy =     -186.84727135  energy(sigma->0) =     -186.84828332


--------------------------------------------------------------------------------------------------------




--------------------------------------- Iteration      1(   7)  ---------------------------------------


    POTLOK:  cpu time      0.0052: real time      0.0054
    SETDIJ:  cpu time      0.0018: real time      0.0018
     EDDAV:  cpu time      4.3038: real time      4.3212
       DOS:  cpu time      0.0047: real time      0.0047
    CHARGE:  cpu time      0.0883: real time      0.0885
    MIXING:  cpu time      0.0003: real time      0.0003
    --------------------------------------------
      LOOP:  cpu time      4.4040: real time      4.4219

 eigenvalue-minimisations  : 24396
 total energy-change (2. order) : 0.3378331E+00  (-0.1267590E+01)
 number of electron     214.9999794 magnetization 
 augmentation part       45.9114869 magnetization 

 Broyden mixing:
  rms(total) = 0.91605E+00    rms(broyden)= 0.91573E+00
  rms(prec ) = 0.21570E+01
  weight for this iteration     100.00

 eigenvalues of (default mixing * dielectric matrix)
  average eigenvalue GAMMA=   1.0603
  1.5145  0.6062

 Free energy of the ion-electron system (eV)
  ---------------------------------------------------
  alpha Z        PSCENC =      1815.78141327
  Ewald energy   TEWEN  =    -23052.54625795
  -Hartree energ DENC   =     -4126.57072924
  -exchange      EXHF   =         0.00000000
  -V(xc)+E(xc)   XCENC  =       884.63216724
  PAW double counting   =     26541.04747136   -26273.30219703
  entropy T*S    EENTRO =        -0.00155445
  eigenvalues    EBANDS =     -3235.45618534
  atomic energy  EATOM  =     27259.90440996
  Solvation  Ediel_sol  =         0.00000000
  ---------------------------------------------------
  free energy    TOTEN  =      -186.51146217 eV

  energy without entropy =     -186.50990772  energy(sigma->0) =     -186.51068495


--------------------------------------------------------------------------------------------------------




--------------------------------------- Iteration      1(   8)  ---------------------------------------


    POTLOK:  cpu time      0.0051: real time      0.0054
    SETDIJ:  cpu time      0.0018: real time      0.0018
     EDDAV:  cpu time      3.8337: real time      3.8489
       DOS:  cpu time      0.0047: real time      0.0047
    CHARGE:  cpu time      0.0872: real time      0.0875
    MIXING:  cpu time      0.0003: real time      0.0003
    --------------------------------------------
      LOOP:  cpu time      3.9328: real time      3.9485

 eigenvalue-minimisations  : 21004
 total energy-change (2. order) : 0.1641655E+01  (-0.6280333E+00)
 number of electron     214.9999787 magnetization 
 augmentation part       46.3851819 magnetization 

 Broyden mixing:
  rms(total) = 0.40310E+00    rms(broyden)= 0.40266E+00
  rms(prec ) = 0.61667E+00
  weight for this iteration     100.00

 eigenvalues of (default mixing * dielectric matrix)
  average eigenvalue GAMMA=   1.0261
  1.5618  1.1116  0.4051

 Free energy of the ion-electron system (eV)
  ---------------------------------------------------
  alpha Z        PSCENC =      1815.78141327
  Ewald energy   TEWEN  =    -23052.54625795
  -Hartree energ DENC   =     -4089.76586909
  -exchange      EXHF   =         0.00000000
  -V(xc)+E(xc)   XCENC  =       882.97227158
  PAW double counting   =     27045.72686471   -26783.16968141
  entropy T*S    EENTRO =        -0.00243927
  eigenvalues    EBANDS =     -3263.77051923
  atomic energy  EATOM  =     27259.90440996
  Solvation  Ediel_sol  =         0.00000000
  ---------------------------------------------------
  free energy    TOTEN  =      -184.86980743 eV

  energy without entropy =     -184.86736816  energy(sigma->0) =     -184.86858779


--------------------------------------------------------------------------------------------------------




--------------------------------------- Iteration      1(   9)  ---------------------------------------


    POTLOK:  cpu time      0.0051: real time      0.0054
    SETDIJ:  cpu time      0.0017: real time      0.0017
     EDDAV:  cpu time      4.0044: real time      4.0201
       DOS:  cpu time      0.0047: real time      0.0047
    CHARGE:  cpu time      0.0874: real time      0.0876
    MIXING:  cpu time      0.0003: real time      0.0003
    --------------------------------------------
      LOOP:  cpu time      4.1036: real time      4.1199

 eigenvalue-minimisations  : 22120
 total energy-change (2. order) :-0.2637571E-02  (-0.1326678E+00)
 number of electron     214.9999788 magnetization 
 augmentation part       46.4540758 magnetization 

 Broyden mixing:
  rms(total) = 0.30682E+00    rms(broyden)= 0.30677E+00
  rms(prec ) = 0.43357E+00
  weight for this iteration     100.00

 eigenvalues of (default mixing * dielectric matrix)
  average eigenvalue GAMMA=   1.1238
  1.7644  1.7644  0.5945  0.3718

 Free energy of the ion-electron system (eV)
  ---------------------------------------------------
  alpha Z        PSCENC =      1815.78141327
  Ewald energy   TEWEN  =    -23052.54625795
  -Hartree energ DENC   =     -4084.77334824
  -exchange      EXHF   =         0.00000000
  -V(xc)+E(xc)   XCENC  =       882.75046872
  PAW double counting   =     27223.16585210   -26961.03826262
  entropy T*S    EENTRO =        -0.00117083
  eigenvalues    EBANDS =     -3268.11554941
  atomic energy  EATOM  =     27259.90440996
  Solvation  Ediel_sol  =         0.00000000
  ---------------------------------------------------
  free energy    TOTEN  =      -184.87244500 eV

  energy without entropy =     -184.87127417  energy(sigma->0) =     -184.87185958


--------------------------------------------------------------------------------------------------------




--------------------------------------- Iteration      1(  10)  ---------------------------------------


    POTLOK:  cpu time      0.0051: real time      0.0054
    SETDIJ:  cpu time      0.0018: real time      0.0018
     EDDAV:  cpu time      3.9601: real time      3.9755
       DOS:  cpu time      0.0046: real time      0.0046
    CHARGE:  cpu time      0.0895: real time      0.0898
    MIXING:  cpu time      0.0003: real time      0.0003
    --------------------------------------------
      LOOP:  cpu time      4.0613: real time      4.0774

 eigenvalue-minimisations  : 22052
 total energy-change (2. order) : 0.3604227E-01  (-0.3703914E-01)
 number of electron     214.9999789 magnetization 
 augmentation part       46.3745539 magnetization 

 Broyden mixing:
  rms(total) = 0.14325E+00    rms(broyden)= 0.14321E+00
  rms(prec ) = 0.24807E+00
  weight for this iteration     100.00

 eigenvalues of (default mixing * dielectric matrix)
  average eigenvalue GAMMA=   1.1272
  2.2752  1.7250  0.8483  0.4143  0.3732

 Free energy of the ion-electron system (eV)
  ---------------------------------------------------
  alpha Z        PSCENC =      1815.78141327
  Ewald energy   TEWEN  =    -23052.54625795
  -Hartree energ DENC   =     -4086.08870639
  -exchange      EXHF   =         0.00000000
  -V(xc)+E(xc)   XCENC  =       882.78308250
  PAW double counting   =     27326.13023586   -27063.38344565
  entropy T*S    EENTRO =        -0.00143756
  eigenvalues    EBANDS =     -3267.41569677
  atomic energy  EATOM  =     27259.90440996
  Solvation  Ediel_sol  =         0.00000000
  ---------------------------------------------------
  free energy    TOTEN  =      -184.83640273 eV

  energy without entropy =     -184.83496517  energy(sigma->0) =     -184.83568395


--------------------------------------------------------------------------------------------------------




--------------------------------------- Iteration      1(  11)  ---------------------------------------


    POTLOK:  cpu time      0.0051: real time      0.0054
    SETDIJ:  cpu time      0.0018: real time      0.0018
     EDDAV:  cpu time      3.9932: real time      4.0093
       DOS:  cpu time      0.0049: real time      0.0049
    CHARGE:  cpu time      0.0874: real time      0.0877
    MIXING:  cpu time      0.0004: real time      0.0004
    --------------------------------------------
      LOOP:  cpu time      4.0927: real time      4.1094

 eigenvalue-minimisations  : 22292
 total energy-change (2. order) : 0.6121563E-02  (-0.1203973E-01)
 number of electron     214.9999789 magnetization 
 augmentation part       46.3591501 magnetization 

 Broyden mixing:
  rms(total) = 0.58707E-01    rms(broyden)= 0.58646E-01
  rms(prec ) = 0.15675E+00
  weight for this iteration     100.00

 eigenvalues of (default mixing * dielectric matrix)
  average eigenvalue GAMMA=   1.0468
  2.4306  1.6823  0.9093  0.4476  0.4476  0.3634

 Free energy of the ion-electron system (eV)
  ---------------------------------------------------
  alpha Z        PSCENC =      1815.78141327
  Ewald energy   TEWEN  =    -23052.54625795
  -Hartree energ DENC   =     -4086.18465872
  -exchange      EXHF   =         0.00000000
  -V(xc)+E(xc)   XCENC  =       882.78011061
  PAW double counting   =     27370.01489207   -27106.89131650
  entropy T*S    EENTRO =        -0.00136054
  eigenvalues    EBANDS =     -3267.68751336
  atomic energy  EATOM  =     27259.90440996
  Solvation  Ediel_sol  =         0.00000000
  ---------------------------------------------------
  free energy    TOTEN  =      -184.83028117 eV

  energy without entropy =     -184.82892062  energy(sigma->0) =     -184.82960089


--------------------------------------------------------------------------------------------------------




--------------------------------------- Iteration      1(  12)  ---------------------------------------


    POTLOK:  cpu time      0.0051: real time      0.0054
    SETDIJ:  cpu time      0.0018: real time      0.0018
     EDDAV:  cpu time      4.0532: real time      4.0687
       DOS:  cpu time      0.0049: real time      0.0049
    CHARGE:  cpu time      0.0886: real time      0.0889
    MIXING:  cpu time      0.0003: real time      0.0003
    --------------------------------------------
[...]
     41     -25.0441      2.00000
     42     -24.9595      2.00000
     43     -24.9387      2.00000
     44     -24.9102      2.00000
     45     -24.8835      2.00000
     46     -24.8742      2.00000
     47     -24.8610      2.00000
     48     -24.4210      2.00000
     49     -24.2508      2.00000
     50     -24.2311      2.00000
     51     -24.1798      2.00000
     52     -24.1723      2.00000
     53     -24.0346      2.00000
     54     -21.1386      2.00000
     55     -21.0445      2.00000
     56     -20.8981      2.00000
     57     -20.8649      2.00000
     58     -20.8448      2.00000
     59     -20.8149      2.00000
     60     -20.8108      2.00000
     61     -20.6607      2.00000
     62     -20.5969      2.00000
     63       4.1877      2.00000
     64       4.8431      2.00000
     65       5.0621      2.00000
     66       5.1217      2.00000
     67       5.5832      2.00000
     68       5.7320      2.00000
     69       5.9899      2.00000
     70       6.5121      2.00000
     71       6.7719      2.00000
     72       6.8141      2.00000
     73       6.8284      2.00000
     74       6.8837      2.00000
     75       6.9130      2.00000
     76       6.9962      2.00000
     77       7.0319      2.00000
     78       7.0818      2.00000
     79       7.1369      2.00000
     80       7.1739      2.00000
     81       7.2222      2.00000
     82       7.2495      2.00000
     83       7.5226      2.00000
     84       7.5452      2.00000
     85       7.6133      2.00000
     86       7.6929      2.00000
     87       7.7161      2.00000
     88       7.7521      2.00000
     89       7.7639      2.00000
     90       7.7804      2.00000
     91       7.8068      2.00000
     92       7.8484      2.00000
     93       7.8803      2.00000
     94       7.9027      2.00000
     95       7.9428      2.00000
     96       7.9654      2.00000
     97       7.9845      2.00000
     98       8.0020      2.00000
     99       8.0487      2.00000
    100       8.0689      2.00000
    101       8.0843      2.00000
    102       8.1107      2.00000
    103       8.1578      2.00000
    104       8.2067      2.00000
    105       8.2760      2.00000
    106       8.3064      2.00000
    107       8.3462      2.00000
    108       8.4305      2.00000
    109       8.4697      2.00000
    110       8.8396      2.00000
    111      11.3564      0.00000
    112      11.4448      0.00000
    113      11.5003      0.00000
    114      11.6191      0.00000
    115      11.6686      0.00000
    116      11.6914      0.00000
    117      11.7321      0.00000
    118      11.7512      0.00000
    119      11.8008      0.00000
    120      11.8544      0.00000
    121      11.9312      0.00000
    122      11.9789      0.00000
    123      12.0125      0.00000
    124      12.0552      0.00000
    125      12.1034      0.00000
    126      12.1665      0.00000
    127      12.2406      0.00000
    128      12.3480      0.00000
    129      12.4308      0.00000
    130      12.5124      0.00000
    131      12.5801      0.00000
    132      12.6992      0.00000

 k-point    63 :       0.4000   -0.4000    0.4000
  band No.  band energies     occupation 
      1     -64.1019      2.00000
      2     -64.0812      2.00000
      3     -64.0681      2.00000
      4     -64.0567      2.00000
      5     -64.0370      2.00000
      6     -51.0359      2.00000
      7     -51.0125      2.00000
      8     -51.0091      2.00000
      9     -50.9772      2.00000
     10     -50.9593      2.00000
     11     -50.9393      2.00000
     12     -44.8151      2.00000
     13     -44.7543      2.00000
     14     -44.7284      2.00000
     15     -28.4835      2.00000
     16     -28.4613      2.00000
     17     -28.3604      2.00000
     18     -28.3130      2.00000
     19     -28.2960      2.00000
     20     -28.2831      2.00000
     21     -28.2641      2.00000
     22     -28.2616      2.00000
     23     -28.2543      2.00000
     24     -28.2487      2.00000
     25     -28.2414      2.00000
     26     -28.2291      2.00000
     27     -28.1621      2.00000
     28     -28.1107      2.00000
     29     -28.0304      2.00000
     30     -25.3179      2.00000
     31     -25.2950      2.00000
     32     -25.2751      2.00000
     33     -25.2555      2.00000
     34     -25.2502      2.00000
     35     -25.1982      2.00000
     36     -25.1310      2.00000
     37     -25.1176      2.00000
     38     -25.0880      2.00000
     39     -25.0719      2.00000
     40     -25.0629      2.00000
     41     -25.0442      2.00000
     42     -24.9594      2.00000
     43     -24.9391      2.00000
     44     -24.9101      2.00000
     45     -24.8838      2.00000
     46     -24.8754      2.00000
     47     -24.8610      2.00000
     48     -24.4236      2.00000
     49     -24.2508      2.00000
     50     -24.2312      2.00000
     51     -24.1797      2.00000
     52     -24.1721      2.00000
     53     -24.0323      2.00000
     54     -21.1386      2.00000
     55     -21.0446      2.00000
     56     -20.8981      2.00000
     57     -20.8649      2.00000
     58     -20.8449      2.00000
     59     -20.8152      2.00000
     60     -20.8105      2.00000
     61     -20.6606      2.00000
     62     -20.5969      2.00000
     63       4.1871      2.00000
     64       4.8530      2.00000
     65       5.0374      2.00000
     66       5.1370      2.00000
     67       5.5933      2.00000
     68       5.7323      2.00000
     69       5.9709      2.00000
     70       6.5227      2.00000
     71       6.7553      2.00000
     72       6.7780      2.00000
     73       6.8332      2.00000
     74       6.8922      2.00000
     75       6.9445      2.00000
     76       7.0022      2.00000
     77       7.0808      2.00000
     78       7.1119      2.00000
     79       7.1303      2.00000
     80       7.1725      2.00000
     81       7.1813      2.00000
     82       7.2225      2.00000
     83       7.5060      2.00000
     84       7.5308      2.00000
     85       7.6377      2.00000
     86       7.6513      2.00000
     87       7.6750      2.00000
     88       7.7494      2.00000
     89       7.7677      2.00000
     90       7.8170      2.00000
     91       7.8303      2.00000
     92       7.8422      2.00000
     93       7.8916      2.00000
     94       7.9215      2.00000
     95       7.9499      2.00000
     96       7.9741      2.00000
     97       7.9977      2.00000
     98       8.0123      2.00000
     99       8.0241      2.00000
    100       8.0494      2.00000
    101       8.0888      2.00000
    102       8.1255      2.00000
    103       8.1563      2.00000
    104       8.1863      2.00000
    105       8.2185      2.00000
    106       8.2919      2.00000
    107       8.4176      2.00000
    108       8.4693      2.00000
    109       8.4961      2.00000
    110       8.7871      2.00000
    111      11.3901      0.00000
    112      11.4515      0.00000
    113      11.5082      0.00000
    114      11.6137      0.00000
    115      11.6625      0.00000
    116      11.6990      0.00000
    117      11.7410      0.00000
    118      11.7773      0.00000
    119      11.8380      0.00000
    120      11.8573      0.00000
    121      11.9113      0.00000
    122      11.9403      0.00000
    123      12.0000      0.00000
    124      12.0431      0.00000
    125      12.0607      0.00000
    126      12.1154      0.00000
    127      12.2354      0.00000
    128      12.3521      0.00000
    129      12.4548      0.00000
    130      12.4972      0.00000
    131      12.5665      0.00000
    132      12.6261      0.00000


--------------------------------------------------------------------------------------------------------


 soft charge-density along one line, spin component           1
         0         1         2         3         4         5         6         7         8         9
 total charge-density along one line
 
 pseudopotential strength for first ion, spin component:           1
  5.766 -20.290   0.000   0.001   0.000  -0.001  -0.002  -0.001
-20.290   9.206   0.001   0.002   0.001  -0.000  -0.000  -0.000
  0.000   0.001  -9.758   0.001  -0.001   5.998  -0.001   0.001
  0.001   0.002   0.001  -9.758  -0.003  -0.001   5.998   0.003
  0.000   0.001  -0.001  -0.003  -9.755   0.001   0.003   5.994
 -0.001  -0.000   5.998  -0.001   0.001   7.943   0.001  -0.001
 -0.002  -0.000  -0.001   5.998   0.003   0.001   7.943  -0.002
 -0.001  -0.000   0.001   0.003   5.994  -0.001  -0.002   7.945
 -0.001  -0.000   0.000  -0.000   0.000  -0.000  -0.000  -0.000
  0.001   0.000   0.001   0.000  -0.000  -0.001  -0.000  -0.000
 -0.001  -0.000  -0.000   0.001  -0.000   0.000  -0.001   0.000
 -0.002  -0.001  -0.000   0.000   0.001  -0.000  -0.000  -0.001
  0.001   0.000  -0.000  -0.000   0.000   0.000   0.000  -0.000
 -0.001  -0.001   0.000  -0.000   0.000  -0.000  -0.000  -0.000
  0.001   0.000   0.001   0.000  -0.000  -0.001  -0.000  -0.000
 -0.001  -0.000  -0.000   0.001  -0.000   0.000  -0.001   0.000
 -0.002  -0.001  -0.000   0.000   0.001  -0.000  -0.000  -0.001
  0.001   0.001  -0.000  -0.000   0.000   0.000   0.000  -0.000
 total augmentation occupancy for first ion, spin component:           1
  1.995  -0.050   0.000   0.000   0.000   0.000   0.000   0.000  -0.007   0.006  -0.001  -0.009   0.001   0.006  -0.005   0.001
 -0.050   1.316   0.000   0.001   0.001  -0.000  -0.000  -0.001  -0.006   0.006  -0.027  -0.024   0.011  -0.006   0.006   0.013
  0.000   0.000   1.996  -0.000   0.000  -0.034   0.001  -0.001   0.002   0.005  -0.000  -0.000  -0.001  -0.001  -0.003   0.000
  0.000   0.001  -0.000   1.996   0.000   0.001  -0.033  -0.001  -0.000   0.002   0.004   0.001  -0.000   0.000  -0.001  -0.003
  0.000   0.001   0.000   0.000   1.996  -0.001  -0.001  -0.034   0.001  -0.001  -0.001   0.005   0.002  -0.001   0.000   0.001
  0.000  -0.000  -0.034   0.001  -0.001   0.074  -0.002   0.002  -0.005  -0.013   0.000   0.003   0.001   0.002   0.008  -0.000
  0.000  -0.000   0.001  -0.033  -0.001  -0.002   0.071   0.001   0.003  -0.004  -0.004  -0.004   0.000  -0.002   0.003   0.002
  0.000  -0.001  -0.001  -0.001  -0.034   0.002   0.001   0.074  -0.004   0.003   0.001  -0.013  -0.002   0.003  -0.002  -0.001
 -0.007  -0.006   0.002  -0.000   0.001  -0.005   0.003  -0.004   3.311  -0.020   0.044  -0.041   0.001  -1.401   0.000  -0.018
  0.006   0.006   0.005   0.002  -0.001  -0.013  -0.004   0.003  -0.020   3.310   0.020   0.034  -0.039   0.000  -1.398  -0.008
 -0.001  -0.027  -0.000   0.004  -0.001   0.000  -0.004   0.001   0.044   0.020   2.537  -0.030  -0.022  -0.017  -0.008  -1.144
 -0.009  -0.024  -0.000   0.001   0.005   0.003  -0.004  -0.013  -0.041   0.034  -0.030   3.312  -0.056   0.032  -0.030   0.013
  0.001   0.011  -0.001  -0.000   0.002   0.001   0.000  -0.002   0.001  -0.039  -0.022  -0.056   2.595  -0.001   0.015   0.008
  0.006  -0.006  -0.001   0.000  -0.001   0.002  -0.002   0.003  -1.401   0.000  -0.017   0.032  -0.001   0.605   0.003   0.007
 -0.005   0.006  -0.003  -0.001   0.000   0.008   0.003  -0.002   0.000  -1.398  -0.008  -0.030   0.015   0.003   0.602   0.003
  0.001   0.013   0.000  -0.003   0.001  -0.000   0.002  -0.001  -0.018  -0.008  -1.144   0.013   0.008   0.007   0.003   0.522
  0.007   0.007   0.000  -0.001  -0.003  -0.002   0.002   0.008   0.032  -0.030   0.013  -1.398   0.024  -0.020   0.019  -0.006
 -0.001  -0.004   0.001   0.000  -0.001  -0.000  -0.000   0.001  -0.000   0.016   0.008   0.025  -1.172   0.000  -0.006  -0.002


------------------------ aborting loop because EDIFF is reached ----------------------------------------


    CHARGE:  cpu time      0.0907: real time      0.0911
    FORLOC:  cpu time      0.0005: real time      0.0005
    FORNL :  cpu time      0.8473: real time      0.8501
    STRESS:  cpu time      1.0620: real time      1.0658
    FORCOR:  cpu time      0.0064: real time      0.0064
    FORHAR:  cpu time      0.0015: real time      0.0015
    MIXING:  cpu time      0.0008: real time      0.0008
    OFIELD:  cpu time      0.0000: real time      0.0000

  FORCE on cell =-STRESS in cart. coord.  units (eV):
  Direction    XX          YY          ZZ          XY          YZ          ZX
  --------------------------------------------------------------------------------------
  Alpha Z  1815.78141  1815.78141  1815.78141
  Ewald   -7683.35679 -7669.93741 -7699.32537    12.64610    -4.21537   -12.64610
  Hartree  1364.37861  1376.72601  1344.22987    10.71435    -4.68268   -11.50411
  E(xc)   -1000.70804 -1000.74727 -1000.72506    -0.01205     0.01087     0.02627
  Local    1755.42920  1729.88495  1792.02880   -22.26121     9.40901    22.80588
  n-local  -298.02136  -296.07679  -296.19342    -0.49578    -0.98786     0.60381
  augment   633.48342   633.41354   633.16275    -0.20222    -0.01447     0.21379
  Kinetic  3378.42996  3376.59042  3376.49421    -0.39807     0.21175     0.23367
  Fock        0.00000     0.00000     0.00000     0.00000     0.00000     0.00000
  -------------------------------------------------------------------------------------
  Total     -34.58360   -34.36513   -34.54681    -0.00888    -0.26875    -0.26680
  in kB    -194.49260  -193.26396  -194.28571    -0.04995    -1.51141    -1.50045
  external pressure =     -194.01 kB  Pullay stress =        0.00 kB


 VOLUME and BASIS-vectors are now :
 -----------------------------------------------------------------------------
  energy-cutoff  :      250.00
  volume of cell :      284.89
      direct lattice vectors                 reciprocal lattice vectors
     6.580000000  0.000000000  0.000000000     0.151975684  0.000000000  0.000000000
     0.000000000  6.580000000  0.000000000     0.000000000  0.151975684  0.000000000
     0.000000000  0.000000000  6.580000000     0.000000000  0.000000000  0.151975684

  length of vectors
     6.580000000  6.580000000  6.580000000     0.151975684  0.151975684  0.151975684


 FORCES acting on ions
    electron-ion (+dipol)            ewald-force                    non-local-force                 convergence-correction
 -----------------------------------------------------------------------------------------------
   -.204E+02 0.204E+02 0.204E+02   0.204E+02 -.204E+02 -.204E+02   0.389E-01 0.359E-01 0.927E-01   0.288E-04 0.548E-04 0.854E-04
   -.309E+02 -.100E+02 0.517E+02   0.306E+02 0.102E+02 -.510E+02   0.200E-01 -.827E-01 0.209E-01   -.663E-04 -.292E-04 0.425E-04
   0.204E+02 0.204E+02 0.204E+02   -.204E+02 -.204E+02 -.204E+02   -.366E-01 0.362E-01 0.964E-01   -.227E-04 0.506E-04 0.779E-04
   0.331E+02 -.108E+02 0.552E+02   -.329E+02 0.110E+02 -.549E+02   0.252E-01 -.297E-02 0.131E+00   0.592E-04 -.250E-04 0.173E-04
   0.331E+02 0.108E+02 0.552E+02   -.329E+02 -.110E+02 -.549E+02   0.101E-01 -.634E-02 0.193E+00   0.572E-04 0.273E-04 0.131E-04
   -.220E+02 0.220E+02 -.219E+02   0.220E+02 -.220E+02 0.220E+02   0.495E-01 0.477E-02 -.674E-01   0.276E-04 0.540E-04 -.607E-04
   -.220E+02 -.220E+02 -.219E+02   0.220E+02 0.220E+02 0.220E+02   0.489E-01 -.541E-02 -.995E-01   0.322E-04 -.558E-04 -.648E-04
   0.220E+02 0.220E+02 -.219E+02   -.220E+02 -.220E+02 0.220E+02   -.500E-01 0.132E-01 -.798E-01   -.294E-04 0.547E-04 -.656E-04
   0.220E+02 -.220E+02 -.219E+02   -.220E+02 0.220E+02 0.220E+02   -.508E-01 -.913E-02 -.888E-01   -.288E-04 -.553E-04 -.640E-04
   -.172E+02 -.173E+02 0.173E+02   0.173E+02 0.173E+02 -.173E+02   0.186E-01 -.810E-02 0.315E-01   0.319E-04 -.434E-04 0.641E-04
   0.261E+02 0.846E+01 -.439E+02   -.259E+02 -.863E+01 0.431E+02   0.188E-01 0.284E-02 -.110E+00   0.483E-04 0.244E-04 -.439E-04
   -.331E+02 0.109E+02 0.554E+02   0.329E+02 -.110E+02 -.549E+02   -.420E-01 -.972E-01 0.138E+00   -.618E-04 0.290E-04 0.184E-04
   0.220E+02 -.220E+02 0.220E+02   -.220E+02 0.220E+02 -.220E+02   -.812E-02 0.222E-01 -.518E-01   -.351E-04 -.605E-04 0.934E-04
   0.331E+02 -.109E+02 -.553E+02   -.329E+02 0.110E+02 0.549E+02   0.442E-01 0.846E-01 -.146E+00   0.542E-04 -.301E-04 -.304E-04
   -.331E+02 0.109E+02 -.553E+02   0.329E+02 -.110E+02 0.549E+02   -.590E-01 -.826E-01 -.144E+00   -.585E-04 0.367E-04 -.295E-04
   -.331E+02 -.109E+02 -.553E+02   0.329E+02 0.110E+02 0.549E+02   -.456E-01 0.759E-01 -.178E+00   -.596E-04 -.358E-04 -.405E-04
 -----------------------------------------------------------------------------------------------
   0.180E-01 0.189E-01 0.261E+00   -.199E-12 -.426E-13 0.114E-12   -.180E-01 -.189E-01 -.261E+00   -.228E-04 -.357E-05 0.127E-04
 
 
 POSITION                                       TOTAL-FORCE (eV/Angst)
 -----------------------------------------------------------------------------------
      0.00000      3.29000      0.00000         0.000333      0.060658      0.107799
      4.93500      4.93500      1.64500        -0.241413      0.097485      0.721227
      3.29000      3.29000      0.00000        -0.007879      0.065824      0.123448
      1.64500      4.93500      1.64500         0.181785      0.172138      0.461381
      1.64500      1.64500      1.64500         0.165978     -0.157299      0.475999
      0.00000      3.29000      3.29000        -0.025034      0.005693     -0.001007
      0.00000      0.00000      3.29000        -0.031745     -0.012564     -0.001090
      3.29000      3.29000      3.29000         0.029837      0.000736      0.006625
      3.29000      0.00000      3.29000         0.025745     -0.011526     -0.020751
      0.00000      0.00000      0.00000         0.033998     -0.040958      0.094553
      1.64500      1.64500      4.93500         0.261652     -0.166953     -0.842239
      4.93500      1.64500      1.64500        -0.220964     -0.203742      0.589097
      3.29000      0.00000      0.00000         0.024077     -0.008211     -0.035782
      1.64500      4.93500      4.93500         0.202960      0.192213     -0.562876
      4.93500      1.64500      4.93500        -0.200899     -0.181283     -0.535474
      4.93500      4.93500      4.93500        -0.198431      0.187790     -0.580911
 -----------------------------------------------------------------------------------
    total drift:                                0.000005     -0.000011     -0.000020


--------------------------------------------------------------------------------------------------------



  FREE ENERGIE OF THE ION-ELECTRON SYSTEM (eV)
  ---------------------------------------------------
  free  energy   TOTEN  =      -184.82144150 eV

  energy  without entropy=     -184.82016723  energy(sigma->0) =     -184.82080437
 


--------------------------------------------------------------------------------------------------------


    POTLOK:  cpu time      0.0062: real time      0.0062


--------------------------------------------------------------------------------------------------------


     LOOP+:  cpu time     97.3523: real time     98.0072
    4ORBIT:  cpu time      0.0000: real time      0.0000

 total amount of memory used by VASP MPI-rank0    48519. kBytes
=======================================================================

   base      :      30000. kBytes
   nonl-proj :       8332. kBytes
   fftplans  :        456. kBytes
   grid      :        919. kBytes
   one-center:         31. kBytes
   wavefun   :       8781. kBytes
 
  
  
 General timing and accounting informations for this job:
 ========================================================
  
                  Total CPU time used (sec):      101.138
                            User time (sec):       99.756
                          System time (sec):        1.382
                         Elapsed time (sec):      103.091
  
                   Maximum memory used (kb):       90552.
                   Average memory used (kb):          N/A
  
                          Minor page faults:         8972
                          Major page faults:            0
                 Voluntary context switches:          230
