 vasp.6.3.1 04May22 (build Jul 26 2022 04:02:40) complex                        
  
 executed on             LinuxIFC date 2023.12.01  00:29:14
 running on   48 total cores
 distrk:  each k-point on   48 cores,    1 groups
 distr:  one band on NCORE=  12 cores,    4 groups


--------------------------------------------------------------------------------------------------------


 INCAR:
   ISTART = 0
   NWRITE = 2
   PREC = Accurate
   ENCUT = 250
   GGA = PE
   NSW = 0
   ISIF = 2
   ISYM = 2
   NBLOCK = 1
   KBLOCK = 1
   IBRION = -1
   NELM = 80
   EDIFF = 1E-08
   EDIFFG = -0.01
   ALGO = Normal
   LDIAG = .TRUE.
   LREAL = .FALSE.
   ISMEAR = 0
   SIGMA = 0.02
   ICHARG = 2
   LPLANE = .TRUE.
   NPAR = 4
   LSCALU = .FALSE.
   NSIM = 4
   LWAVE = .FALSE.
   LCHARG = .FALSE.
   ICORELEVEL = 1

 POTCAR:    PAW_PBE Nb_sv 25May2007               
 POTCAR:    PAW_PBE Mo_sv 02Feb2006               
 POTCAR:    PAW_PBE Ta_pv 07Sep2000               
 POTCAR:    PAW_PBE W_sv 04Sep2015                
 POTCAR:    PAW_PBE Nb_sv 25May2007               
   SHA256 =  0e8fc07c9fcd1164cf2ade22d0399fd28f85e91cd773dfa6cf24839a48c95e24 Nb_sv/POTCAR          
   COPYR  = (c) Copyright 25May2007 Georg Kresse                                                    
   COPYR  = This file is part of the software VASP. Any use, copying, and all other rights are regul
   COPYR  = If you do not have a valid VASP license, you may not use, copy or distribute this file. 
   VRHFIN =Nb: 4p5s4d                                                                               
   LEXCH  = PE                                                                                      
   EATOM  =  1555.1913 eV,  114.3033 Ry                                                             
                                                                                                    
   TITEL  = PAW_PBE Nb_sv 25May2007                                                                 
   LULTRA =        F    use ultrasoft PP ?                                                          
   IUNSCR =        1    unscreen: 0-lin 1-nonlin 2-no                                               
   RPACOR =    1.800    partial core radius                                                         
   POMASS =   92.910; ZVAL   =   13.000    mass and valenz                                          
   RCORE  =    2.400    outmost cutoff radius                                                       
   RWIGS  =    2.400; RWIGS  =    1.270    wigner-seitz radius (au A)                               
   ENMAX  =  293.235; ENMIN  =  219.927 eV                                                          
   ICORE  =        3    local potential                                                             
   LCOR   =        T    correct aug charges                                                         
   LPAW   =        T    paw PP                                                                      
   EAUG   =  455.659                                                                                
   DEXC   =    0.000                                                                                
   RMAX   =    2.456    core radius for proj-oper                                                   
   RAUG   =    1.300    factor for augmentation sphere                                              
   RDEP   =    2.451    radius for radial grids                                                     
   RDEPT  =    1.956    core radius for aug-charge                                                  
                                                                                                    
   Atomic configuration                                                                             
   11 entries                                                                                       
     n  l   j            E        occ.                                                              
     1  0  0.50    -18805.2457   2.0000                                                             
     2  0  0.50     -2630.2869   2.0000                                                             
     2  1  1.50     -2348.4046   6.0000                                                             
     3  0  0.50      -438.8757   2.0000                                                             
     3  1  1.50      -346.7588   6.0000                                                             
     3  2  2.50      -196.2560  10.0000                                                             
     4  0  0.50       -58.3859   2.0000                                                             
     5  0  0.50        -3.9816   1.0000                                                             
     4  1  1.50       -34.5141   6.0000                                                             
     4  2  2.50        -3.0408   4.0000                                                             
     4  3  2.50        -1.3606   0.0000                                                             
   Description                                                                                      
     l       E           TYP  RCUT    TYP  RCUT                                                     
     0    -58.3859094     23  2.200                                                                 
     0     -3.9816262     23  2.200                                                                 
     1    -34.5140738     23  2.200                                                                 
     1     13.6058260     23  2.200                                                                 
     2     -3.0408010     23  2.200                                                                 
     2     -0.1283038     23  2.200                                                                 
     3     -1.3605826     23  2.400                                                                 
  local pseudopotential read in
  partial core-charges read in
  partial kinetic energy density read in
  atomic valenz-charges read in
  non local Contribution for L=           0  read in
    real space projection operators read in
  non local Contribution for L=           0  read in
    real space projection operators read in
  non local Contribution for L=           1  read in
    real space projection operators read in
  non local Contribution for L=           1  read in
    real space projection operators read in
  non local Contribution for L=           2  read in
    real space projection operators read in
  non local Contribution for L=           2  read in
    real space projection operators read in
    PAW grid and wavefunctions read in
 
   number of l-projection  operators is LMAX  =           6
   number of lm-projection operators is LMMAX =          18
 
 POTCAR:    PAW_PBE Mo_sv 02Feb2006               
   SHA256 =  2731df97e41766cc617548c5a8267718fdef1f509ac6bafa01e745abea2bdfaa Mo_sv/POTCAR          
   COPYR  = (c) Copyright 02Feb2006 Georg Kresse                                                    
   COPYR  = This file is part of the software VASP. Any use, copying, and all other rights are regul
   COPYR  = If you do not have a valid VASP license, you may not use, copy or distribute this file. 
   VRHFIN =Mo: 4p5s4d                                                                               
   LEXCH  = PE                                                                                      
   EATOM  =  1862.2866 eV,  136.8742 Ry                                                             
                                                                                                    
   TITEL  = PAW_PBE Mo_sv 02Feb2006                                                                 
   LULTRA =        F    use ultrasoft PP ?                                                          
   IUNSCR =        1    unscreen: 0-lin 1-nonlin 2-no                                               
   RPACOR =    2.200    partial core radius                                                         
   POMASS =   95.940; ZVAL   =   14.000    mass and valenz                                          
   RCORE  =    2.500    outmost cutoff radius                                                       
   RWIGS  =    2.750; RWIGS  =    1.455    wigner-seitz radius (au A)                               
   ENMAX  =  242.676; ENMIN  =  182.007 eV                                                          
   ICORE  =        3    local potential                                                             
   LCOR   =        T    correct aug charges                                                         
   LPAW   =        T    paw PP                                                                      
   EAUG   =  446.014                                                                                
   DEXC   =    0.000                                                                                
   RMAX   =    2.563    core radius for proj-oper                                                   
   RAUG   =    1.300    factor for augmentation sphere                                              
   RDEP   =    2.641    radius for radial grids                                                     
   RDEPT  =    2.031    core radius for aug-charge                                                  
                                                                                                    
   Atomic configuration                                                                             
   11 entries                                                                                       
     n  l   j            E        occ.                                                              
     1  0  0.50    -19819.0341   2.0000                                                             
     2  0  0.50     -2799.0127   2.0000                                                             
     2  1  1.50     -2502.0276   6.0000                                                             
     3  0  0.50      -476.4449   2.0000                                                             
     3  1  1.50      -379.1496   6.0000                                                             
     3  2  2.50      -220.9367  10.0000                                                             
     4  0  0.50       -64.3378   2.0000                                                             
     5  0  0.50        -4.0862   1.0000                                                             
     4  1  1.50       -38.4773   6.0000                                                             
     4  2  2.50        -3.7535   5.0000                                                             
     4  3  2.50        -1.3606   0.0000                                                             
   Description                                                                                      
     l       E           TYP  RCUT    TYP  RCUT                                                     
     0    -64.3377829     23  2.100                                                                 
     0     -4.0861640     23  2.400                                                                 
     1    -38.4772993     23  2.100                                                                 
     1     13.6058260     23  2.100                                                                 
     2     -3.7534941     23  2.400                                                                 
     2     -5.1140767     23  2.400                                                                 
     3     -4.0817478     23  2.500                                                                 
  local pseudopotential read in
  partial core-charges read in
  partial kinetic energy density read in
  atomic valenz-charges read in
  non local Contribution for L=           0  read in
    real space projection operators read in
  non local Contribution for L=           0  read in
    real space projection operators read in
  non local Contribution for L=           1  read in
    real space projection operators read in
  non local Contribution for L=           1  read in
    real space projection operators read in
  non local Contribution for L=           2  read in
    real space projection operators read in
  non local Contribution for L=           2  read in
    real space projection operators read in
    PAW grid and wavefunctions read in
 
   number of l-projection  operators is LMAX  =           6
   number of lm-projection operators is LMMAX =          18
 
 POTCAR:    PAW_PBE Ta_pv 07Sep2000               
   SHA256 =  00d0a14a36c127416459414afb8617d9754996fffa60a2465888e660b20a452f Ta_pv/POTCAR          
   COPYR  = (c) Copyright 07Sep2000 Georg Kresse                                                    
   COPYR  = This file is part of the software VASP. Any use, copying, and all other rights are regul
   COPYR  = If you do not have a valid VASP license, you may not use, copy or distribute this file. 
   VRHFIN =Ta:  5p6s5d                                                                              
   LEXCH  = PE                                                                                      
   EATOM  =  1047.1984 eV,   76.9669 Ry                                                             
                                                                                                    
   TITEL  = PAW_PBE Ta_pv 07Sep2000                                                                 
   LULTRA =        F    use ultrasoft PP ?                                                          
   IUNSCR =        1    unscreen: 0-lin 1-nonlin 2-no                                               
   RPACOR =    2.330    partial core radius                                                         
   POMASS =  180.948; ZVAL   =   11.000    mass and valenz                                          
   RCORE  =    2.500    outmost cutoff radius                                                       
   RWIGS  =    2.840; RWIGS  =    1.503    wigner-seitz radius (au A)                               
   ENMAX  =  223.667; ENMIN  =  167.750 eV                                                          
   RCLOC  =    2.205    cutoff for local pot                                                        
   LCOR   =        T    correct aug charges                                                         
   LPAW   =        T    paw PP                                                                      
   EAUG   =  377.421                                                                                
   DEXC   =    0.000                                                                                
   RMAX   =    2.551    core radius for proj-oper                                                   
   RAUG   =    1.300    factor for augmentation sphere                                              
   RDEP   =    2.526    radius for radial grids                                                     
   RDEPT  =    2.132    core radius for aug-charge                                                  
                                                                                                    
   Atomic configuration                                                                             
   15 entries                                                                                       
     n  l   j            E        occ.                                                              
     1  0  0.50    -67341.2801   2.0000                                                             
     2  0  0.50    -11566.9369   2.0000                                                             
     2  1  1.50    -10134.1175   6.0000                                                             
     3  0  0.50     -2648.5614   2.0000                                                             
     3  1  1.50     -2222.6006   6.0000                                                             
     3  2  2.50     -1726.3114  10.0000                                                             
     4  0  0.50      -538.6957   2.0000                                                             
     4  1  1.50      -399.0125   6.0000                                                             
     4  2  2.50      -220.3955  10.0000                                                             
     4  3  3.50       -23.0371  14.0000                                                             
     5  0  0.50       -71.2900   2.0000                                                             
     5  1  1.50       -37.8224   6.0000                                                             
     5  2  2.50        -2.6455   4.0000                                                             
     6  0  0.50        -4.9623   1.0000                                                             
     5  3  2.50        -1.3606   0.0000                                                             
   Description                                                                                      
     l       E           TYP  RCUT    TYP  RCUT                                                     
     1    -37.8224449     23  2.500                                                                 
     1      1.3605826     23  2.500                                                                 
     2     -2.6454718     23  2.500                                                                 
     2     -0.6258570     23  2.500                                                                 
     0     -4.9622674     23  2.500                                                                 
     0      4.7531427     23  2.500                                                                 
  local pseudopotential read in
  partial core-charges read in
  partial kinetic energy density read in
  atomic valenz-charges read in
  non local Contribution for L=           1  read in
    real space projection operators read in
  non local Contribution for L=           1  read in
    real space projection operators read in
  non local Contribution for L=           2  read in
    real space projection operators read in
  non local Contribution for L=           2  read in
    real space projection operators read in
  non local Contribution for L=           0  read in
    real space projection operators read in
  non local Contribution for L=           0  read in
    real space projection operators read in
    PAW grid and wavefunctions read in
 
   number of l-projection  operators is LMAX  =           6
   number of lm-projection operators is LMMAX =          18
 
 POTCAR:    PAW_PBE W_sv 04Sep2015                
   SHA256 =  931c2d770f65867ef30f3db3421922900fc0890ebac5c3e12f63b6a2064023d7 W_sv/POTCAR           
   COPYR  = (c) Copyright 04Sep2015 Georg Kresse                                                    
   COPYR  = This file is part of the software VASP. Any use, copying, and all other rights are regul
   COPYR  = If you do not have a valid VASP license, you may not use, copy or distribute this file. 
   VRHFIN =W : 5p6s5d                                                                               
   LEXCH  = PE                                                                                      
   EATOM  =  1865.5791 eV,  137.1162 Ry                                                             
                                                                                                    
   TITEL  = PAW_PBE W_sv 04Sep2015                                                                  
   LULTRA =        F    use ultrasoft PP ?                                                          
   IUNSCR =        1    unscreen: 0-lin 1-nonlin 2-no                                               
   RPACOR =    2.330    partial core radius                                                         
   POMASS =  183.850; ZVAL   =   14.000    mass and valenz                                          
   RCORE  =    2.500    outmost cutoff radius                                                       
   RWIGS  =    2.750; RWIGS  =    1.455    wigner-seitz radius (au A)                               
   ENMAX  =  223.057; ENMIN  =  167.293 eV                                                          
   ICORE  =        3    local potential                                                             
   LCOR   =        T    correct aug charges                                                         
   LPAW   =        T    paw PP                                                                      
   EAUG   =  373.438                                                                                
   DEXC   =    0.000                                                                                
   RMAX   =    2.565    core radius for proj-oper                                                   
   RAUG   =    1.300    factor for augmentation sphere                                              
   RDEP   =    2.539    radius for radial grids                                                     
   RDEPT  =    2.126    core radius for aug-charge                                                  
                                                                                                    
   Atomic configuration                                                                             
   15 entries                                                                                       
     n  l   j            E        occ.                                                              
     1  0  0.50    -69465.5834   2.0000                                                             
     2  0  0.50    -11986.2640   2.0000                                                             
     2  1  1.50    -10479.8613   6.0000                                                             
     3  0  0.50     -2759.0756   2.0000                                                             
     3  1  1.50     -2313.1855   6.0000                                                             
     3  2  2.50     -1801.1183  10.0000                                                             
     4  0  0.50      -567.6789   2.0000                                                             
     4  1  1.50      -421.4692   6.0000                                                             
     4  2  2.50      -236.3471  10.0000                                                             
     4  3  3.50       -31.2665  14.0000                                                             
     5  0  0.50       -77.1084   2.0000                                                             
     6  0  0.50        -5.1438   1.0000                                                             
     5  1  1.50       -41.3856   6.0000                                                             
     5  2  2.50        -3.3185   5.0000                                                             
     5  3  2.50        -1.3606   0.0000                                                             
   Description                                                                                      
     l       E           TYP  RCUT    TYP  RCUT                                                     
     0    -77.1084470     23  2.100                                                                 
     0     -5.1437956     23  2.300                                                                 
     1    -41.3855615     23  2.500                                                                 
     1     -2.7211652     23  2.500                                                                 
     2     -3.3185025     23  2.500                                                                 
     2     -1.5965151     23  2.500                                                                 
     3     -1.3605826     23  2.500                                                                 
  local pseudopotential read in
  partial core-charges read in
  partial kinetic energy density read in
  kinetic energy density of atom read in
  atomic valenz-charges read in
  non local Contribution for L=           0  read in
    real space projection operators read in
  non local Contribution for L=           0  read in
    real space projection operators read in
  non local Contribution for L=           1  read in
    real space projection operators read in
  non local Contribution for L=           1  read in
    real space projection operators read in
  non local Contribution for L=           2  read in
    real space projection operators read in
  non local Contribution for L=           2  read in
    real space projection operators read in
    PAW grid and wavefunctions read in
 
   number of l-projection  operators is LMAX  =           6
   number of lm-projection operators is LMMAX =          18
 
 -----------------------------------------------------------------------------
|                                                                             |
|               ----> ADVICE to this user running VASP <----                  |
|                                                                             |
|     You have a (more or less) 'large supercell' and for larger cells it     |
|     might be more efficient to use real-space projection operators.         |
|     Therefore, try LREAL= Auto in the INCAR file.                           |
|     Mind: For very accurate calculation, you might also keep the            |
|     reciprocal projection scheme (i.e. LREAL=.FALSE.).                      |
|                                                                             |
 -----------------------------------------------------------------------------

  PAW_PBE Nb_sv 25May2007               :
 energy of atom  1       EATOM=-1555.1913
 kinetic energy error for atom=    0.2155 (will be added to EATOM!!)
  PAW_PBE Mo_sv 02Feb2006               :
 energy of atom  2       EATOM=-1862.2866
 kinetic energy error for atom=    0.1102 (will be added to EATOM!!)
  PAW_PBE Ta_pv 07Sep2000               :
 energy of atom  3       EATOM=-1047.1984
 kinetic energy error for atom=    0.0394 (will be added to EATOM!!)
  PAW_PBE W_sv 04Sep2015                :
 energy of atom  4       EATOM=-1865.5791
 kinetic energy error for atom=    0.0589 (will be added to EATOM!!)
 
 
 POSCAR: Nb-Mo-Ta-W alloy
  positions in direct lattice
  No initial velocities read in
 exchange correlation table for  LEXCH =        8
   RHO(1)=    0.500       N(1)  =     2000
   RHO(2)=  100.500       N(2)  =     4000
 


--------------------------------------------------------------------------------------------------------


 ion  position               nearest neighbor table
   1  0.750  0.750  0.000-   7 2.85  11 2.85  32 2.85  38 2.85  39 2.85  41 2.85  55 2.85  56 2.85
                            53 3.29  46 3.29  51 3.29  46 3.29
   2  0.500  0.250  0.500-  21 2.85  29 2.85  30 2.85  35 2.85  44 2.85  52 2.85  57 2.85  60 2.85
                            37 3.29  42 3.29  37 3.29
   3  0.750  0.000  0.500-   8 2.85   9 2.85  32 2.85  35 2.85  38 2.85  41 2.85  52 2.85  56 2.85
                            42 3.29  46 3.29
   4  0.000  0.500  0.500-  11 2.85  14 2.85  26 2.85  43 2.85  48 2.85  55 2.85  58 2.85  61 2.85
                            45 3.29
   5  0.500  0.000  0.500-  27 2.85  30 2.85  31 2.85  35 2.85  41 2.85  52 2.85  56 2.85  57 2.85
                            47 3.29
   6  0.250  0.500  0.500-  14 2.85  21 2.85  26 2.85  40 2.85  43 2.85  44 2.85  48 2.85  54 2.85

   7  0.625  0.625  0.750-   1 2.85  10 2.85  15 2.85  25 2.85  46 2.85  50 2.85  53 2.85  64 2.85
                            54 3.29  39 3.29  39 3.29
   8  0.875  0.125  0.750-   3 2.85  12 2.85  19 2.85  24 2.85  28 2.85  33 2.85  42 2.85  59 2.85
                            35 3.29
   9  0.875  0.125  0.250-   3 2.85  12 2.85  19 2.85  24 2.85  28 2.85  33 2.85  42 2.85  59 2.85
                            52 3.29  38 3.29
  10  0.500  0.500  0.500-   7 2.85  21 2.85  29 2.85  39 2.85  40 2.85  44 2.85  54 2.85  60 2.85
                            50 3.29  50 3.29
  11  0.875  0.625  0.250-   1 2.85   4 2.85  15 2.85  45 2.85  46 2.85  51 2.85  62 2.85  64 2.85
                            43 3.29  38 3.29  39 3.29
  12  0.000  0.250  0.000-   8 2.85   9 2.85  13 2.85  22 2.85  26 2.85  48 2.85  58 2.85  61 2.85
                            49 3.29
  13  0.125  0.125  0.250-  12 2.85  19 2.85  20 2.85  24 2.85  34 2.85  47 2.85  49 2.85  59 2.85

  14  0.125  0.625  0.750-   4 2.85   6 2.85  16 2.85  18 2.85  45 2.85  51 2.85  62 2.85  63 2.85
                            43 3.29  54 3.29  36 3.29  48 3.29  43 3.29
  15  0.750  0.500  0.000-   7 2.85  11 2.85  29 2.85  39 2.85  55 2.85  58 2.85  60 2.85  61 2.85
                            28 3.29  50 3.29  62 3.29  64 3.29  64 3.29
  16  0.250  0.750  0.500-  14 2.85  17 2.85  27 2.85  31 2.85  36 2.85  40 2.85  43 2.85  54 2.85
                            45 3.29  47 3.29  25 3.29  63 3.29  63 3.29
  17  0.125  0.875  0.250-  16 2.85  19 2.85  20 2.85  45 2.85  47 2.85  51 2.85  59 2.85  63 2.85
                            36 3.29  38 3.29  43 3.29  27 3.29  36 3.29
  18  0.250  0.500  0.000-  14 2.85  21 2.85  26 2.85  40 2.85  43 2.85  44 2.85  48 2.85  54 2.85
                            50 3.29  49 3.29  62 3.29  63 3.29
  19  0.000  0.000  0.000-   8 2.85   9 2.85  13 2.85  17 2.85  22 2.85  32 2.85  36 2.85  38 2.85
                            20 3.29  33 3.29  51 3.29  59 3.29  59 3.29
  20  0.250  0.000  0.000-  13 2.85  17 2.85  22 2.85  27 2.85  30 2.85  31 2.85  36 2.85  57 2.85
                            23 3.29  47 3.29  49 3.29  19 3.29  63 3.29  47 3.29
  21  0.375  0.375  0.250-   2 2.85   6 2.85  10 2.85  18 2.85  34 2.85  37 2.85  49 2.85  50 2.85
                            44 3.29  26 3.29  40 3.29  57 3.29  60 3.29  44 3.29
  22  0.125  0.125  0.750-  12 2.85  19 2.85  20 2.85  24 2.85  34 2.85  47 2.85  49 2.85  59 2.85
                            48 3.29  36 3.29  30 3.29
  23  0.500  0.000  0.000-  27 2.85  30 2.85  31 2.85  35 2.85  41 2.85  52 2.85  56 2.85  57 2.85
                            20 3.29  53 3.29  37 3.29  33 3.29
  24  0.000  0.250  0.500-   8 2.85   9 2.85  13 2.85  22 2.85  26 2.85  48 2.85  58 2.85  61 2.85
                            42 3.29  59 3.29  34 3.29
  25  0.500  0.750  0.500-   7 2.85  27 2.85  31 2.85  39 2.85  40 2.85  41 2.85  54 2.85  56 2.85
                            53 3.29  16 3.29  46 3.29  53 3.29
  26  0.125  0.375  0.250-   4 2.85   6 2.85  12 2.85  18 2.85  24 2.85  34 2.85  49 2.85  62 2.85
                            48 3.29  21 3.29  61 3.29  43 3.29  48 3.29
  27  0.375  0.875  0.250-   5 2.85  16 2.85  20 2.85  23 2.85  25 2.85  47 2.85  53 2.85  63 2.85
                            41 3.29  17 3.29  31 3.29  57 3.29  40 3.29  31 3.29
  28  0.750  0.250  0.000-   8 2.85   9 2.85  29 2.85  35 2.85  52 2.85  58 2.85  60 2.85  61 2.85
                            33 3.29  15 3.29  37 3.29  42 3.29  42 3.29
  29  0.625  0.375  0.750-   2 2.85  10 2.85  15 2.85  28 2.85  37 2.85  42 2.85  50 2.85  64 2.85
                            35 3.29  58 3.29  60 3.29  44 3.29  60 3.29
  30  0.375  0.125  0.750-   2 2.85   5 2.85  20 2.85  23 2.85  34 2.85  37 2.85  47 2.85  49 2.85
                            31 3.29  44 3.29  22 3.29  35 3.29  57 3.29  57 3.29
  31  0.375  0.875  0.750-   5 2.85  16 2.85  20 2.85  23 2.85  25 2.85  47 2.85  53 2.85  63 2.85
                            27 3.29  30 3.29  54 3.29  56 3.29  36 3.29  27 3.29
  32  0.875  0.875  0.750-   1 2.85   3 2.85  19 2.85  33 2.85  45 2.85  46 2.85  51 2.85  59 2.85
                            36 3.29  55 3.29  56 3.29  38 3.29  38 3.29
  33  0.750  0.000  0.000-   8 2.85   9 2.85  32 2.85  35 2.85  38 2.85  41 2.85  52 2.85  56 2.85
                            19 3.29  23 3.29  28 3.29
  34  0.250  0.250  0.500-  13 2.85  21 2.85  22 2.85  26 2.85  30 2.85  44 2.85  48 2.85  57 2.85
                            24 3.29  49 3.29  47 3.29  49 3.29
  35  0.625  0.125  0.750-   2 2.85   3 2.85   5 2.85  23 2.85  28 2.85  33 2.85  37 2.85  42 2.85
                             8 3.29  29 3.29  30 3.29  52 3.29  56 3.29  52 3.29
  36  0.125  0.875  0.750-  16 2.85  19 2.85  20 2.85  45 2.85  47 2.85  51 2.85  59 2.85  63 2.85
                            14 3.29  17 3.29  22 3.29  31 3.29  32 3.29  17 3.29
  37  0.500  0.250  0.000-  21 2.85  29 2.85  30 2.85  35 2.85  44 2.85  52 2.85  57 2.85  60 2.85
                            49 3.29  50 3.29  23 3.29  28 3.29   2 3.29   2 3.29
  38  0.875  0.875  0.250-   1 2.85   3 2.85  19 2.85  33 2.85  45 2.85  46 2.85  51 2.85  59 2.85
                            41 3.29  17 3.29   9 3.29  32 3.29  11 3.29  32 3.29
  39  0.625  0.625  0.250-   1 2.85  10 2.85  15 2.85  25 2.85  46 2.85  50 2.85  53 2.85  64 2.85
                             7 3.29  11 3.29  40 3.29  60 3.29  41 3.29   7 3.29
  40  0.375  0.625  0.250-   6 2.85  10 2.85  16 2.85  18 2.85  25 2.85  50 2.85  53 2.85  63 2.85
                            43 3.29  21 3.29  27 3.29  54 3.29  39 3.29  54 3.29
  41  0.625  0.875  0.250-   1 2.85   3 2.85   5 2.85  23 2.85  25 2.85  33 2.85  46 2.85  53 2.85
                            39 3.29  27 3.29  52 3.29  38 3.29  56 3.29  56 3.29
  42  0.750  0.250  0.500-   8 2.85   9 2.85  29 2.85  35 2.85  52 2.85  58 2.85  60 2.85  61 2.85
                            24 3.29  28 3.29   2 3.29   3 3.29  64 3.29  28 3.29
  43  0.125  0.625  0.250-   4 2.85   6 2.85  16 2.85  18 2.85  45 2.85  51 2.85  62 2.85  63 2.85
                            40 3.29  11 3.29  17 3.29  14 3.29  26 3.29  14 3.29
  44  0.375  0.375  0.750-   2 2.85   6 2.85  10 2.85  18 2.85  34 2.85  37 2.85  49 2.85  50 2.85
                            29 3.29  48 3.29  30 3.29  21 3.29  54 3.29  21 3.29
  45  0.000  0.750  0.500-  11 2.85  14 2.85  17 2.85  32 2.85  36 2.85  38 2.85  43 2.85  55 2.85
                             4 3.29  46 3.29  51 3.29  16 3.29  59 3.29  51 3.29
  46  0.750  0.750  0.500-   7 2.85  11 2.85  32 2.85  38 2.85  39 2.85  41 2.85  55 2.85  56 2.85
                             1 3.29  45 3.29   3 3.29  25 3.29  64 3.29   1 3.29
  47  0.250  0.000  0.500-  13 2.85  17 2.85  22 2.85  27 2.85  30 2.85  31 2.85  36 2.85  57 2.85
                            16 3.29  34 3.29   5 3.29  20 3.29  59 3.29  20 3.29
  48  0.125  0.375  0.750-   4 2.85   6 2.85  12 2.85  18 2.85  24 2.85  34 2.85  49 2.85  62 2.85
                            22 3.29  44 3.29  14 3.29  58 3.29  26 3.29  26 3.29
  49  0.250  0.250  0.000-  13 2.85  21 2.85  22 2.85  26 2.85  30 2.85  44 2.85  48 2.85  57 2.85
                            34 3.29  37 3.29  18 3.29  20 3.29  12 3.29  34 3.29
  50  0.500  0.500  0.000-   7 2.85  21 2.85  29 2.85  39 2.85  40 2.85  44 2.85  54 2.85  60 2.85
                            10 3.29  15 3.29  53 3.29  37 3.29  18 3.29  10 3.29
  51  0.000  0.750  0.000-  11 2.85  14 2.85  17 2.85  32 2.85  36 2.85  38 2.85  43 2.85  55 2.85
                            19 3.29  45 3.29   1 3.29  62 3.29  63 3.29  45 3.29
  52  0.625  0.125  0.250-   2 2.85   3 2.85   5 2.85  23 2.85  28 2.85  33 2.85  37 2.85  42 2.85
                             9 3.29  41 3.29  35 3.29  57 3.29  60 3.29  35 3.29
  53  0.500  0.750  0.000-   7 2.85  27 2.85  31 2.85  39 2.85  40 2.85  41 2.85  54 2.85  56 2.85
                            23 3.29  50 3.29  25 3.29   1 3.29  63 3.29  25 3.29
  54  0.375  0.625  0.750-   6 2.85  10 2.85  16 2.85  18 2.85  25 2.85  50 2.85  53 2.85  63 2.85
                            40 3.29  44 3.29  14 3.29   7 3.29  31 3.29  40 3.29
  55  0.875  0.625  0.750-   1 2.85   4 2.85  15 2.85  45 2.85  46 2.85  51 2.85  62 2.85  64 2.85
                            32 3.29  58 3.29
  56  0.625  0.875  0.750-   1 2.85   3 2.85   5 2.85  23 2.85  25 2.85  33 2.85  46 2.85  53 2.85
                            35 3.29  41 3.29  32 3.29  31 3.29  41 3.29
  57  0.375  0.125  0.250-   2 2.85   5 2.85  20 2.85  23 2.85  34 2.85  37 2.85  47 2.85  49 2.85
                            27 3.29  30 3.29  21 3.29  52 3.29  30 3.29
  58  0.875  0.375  0.750-   4 2.85  12 2.85  15 2.85  24 2.85  28 2.85  42 2.85  62 2.85  64 2.85
                            55 3.29  61 3.29  29 3.29  48 3.29  61 3.29
  59  0.000  0.000  0.500-   8 2.85   9 2.85  13 2.85  17 2.85  22 2.85  32 2.85  36 2.85  38 2.85
                            24 3.29  19 3.29  45 3.29  47 3.29  19 3.29
  60  0.625  0.375  0.250-   2 2.85  10 2.85  15 2.85  28 2.85  37 2.85  42 2.85  50 2.85  64 2.85
                            29 3.29  21 3.29  52 3.29  61 3.29  39 3.29  29 3.29
  61  0.875  0.375  0.250-   4 2.85  12 2.85  15 2.85  24 2.85  28 2.85  42 2.85  62 2.85  64 2.85
                            60 3.29  26 3.29  58 3.29  58 3.29
  62  0.000  0.500  0.000-  11 2.85  14 2.85  26 2.85  43 2.85  48 2.85  55 2.85  58 2.85  61 2.85
                            18 3.29  15 3.29  51 3.29
  63  0.250  0.750  0.000-  14 2.85  17 2.85  27 2.85  31 2.85  36 2.85  40 2.85  43 2.85  54 2.85
                            16 3.29  18 3.29  51 3.29  53 3.29  20 3.29  16 3.29
  64  0.750  0.500  0.500-   7 2.85  11 2.85  29 2.85  39 2.85  55 2.85  58 2.85  60 2.85  61 2.85
                            42 3.29  46 3.29  15 3.29  15 3.29
 
  LATTYP: Found a simple tetragonal cell.
 ALAT       =    13.1600000000
 C/A-ratio  =     0.5000000000
  
  Lattice vectors:
  
 A1 = (  13.1600000000,   0.0000000000,   0.0000000000)
 A2 = (   0.0000000000,  13.1600000000,   0.0000000000)
 A3 = (   0.0000000000,   0.0000000000,   6.5800000000)


Analysis of symmetry for initial positions (statically):
=====================================================================
 Subroutine PRICEL returns:
 Original cell was already a primitive cell.
 

 Routine SETGRP: Setting up the symmetry group for a 
 simple tetragonal supercell.


 Subroutine GETGRP returns: Found  1 space group operations
 (whereof  1 operations were pure point group operations)
 out of a pool of 16 trial point group operations.


The static configuration has the point symmetry C_1 .


Analysis of symmetry for dynamics (positions and initial velocities):
=====================================================================
 Subroutine PRICEL returns:
 Original cell was already a primitive cell.
 

 Routine SETGRP: Setting up the symmetry group for a 
 simple tetragonal supercell.


 Subroutine GETGRP returns: Found  1 space group operations
 (whereof  1 operations were pure point group operations)
 out of a pool of 16 trial point group operations.


The dynamic configuration has the point symmetry C_1 .


 Subroutine INISYM returns: Found  1 space group operations
 (whereof  1 operations are pure point group operations),
 and found     1 'primitive' translations


----------------------------------------------------------------------------------------

                                     Primitive cell                                     

  volume of cell :    1139.5612

  direct lattice vectors                    reciprocal lattice vectors
    13.160000000  0.000000000  0.000000000     0.075987842  0.000000000  0.000000000
     0.000000000 13.160000000  0.000000000     0.000000000  0.075987842  0.000000000
     0.000000000  0.000000000  6.580000000     0.000000000  0.000000000  0.151975684

  length of vectors
    13.160000000 13.160000000  6.580000000     0.075987842  0.075987842  0.151975684

  position of ions in fractional coordinates (direct lattice)
     0.750000000  0.750000000  0.000000000
     0.500000000  0.250000000  0.500000000
     0.750000000  0.000000000  0.500000000
     0.000000000  0.500000000  0.500000000
     0.500000000  0.000000000  0.500000000
     0.250000000  0.500000000  0.500000000
     0.625000000  0.625000000  0.750000000
     0.875000000  0.125000000  0.750000000
     0.875000000  0.125000000  0.250000000
     0.500000000  0.500000000  0.500000000
     0.875000000  0.625000000  0.250000000
     0.000000000  0.250000000  0.000000000
     0.125000000  0.125000000  0.250000000
     0.125000000  0.625000000  0.750000000
     0.750000000  0.500000000  0.000000000
     0.250000000  0.750000000  0.500000000
     0.125000000  0.875000000  0.250000000
     0.250000000  0.500000000  0.000000000
     0.000000000  0.000000000  0.000000000
     0.250000000  0.000000000  0.000000000
     0.375000000  0.375000000  0.250000000
     0.125000000  0.125000000  0.750000000
     0.500000000  0.000000000  0.000000000
     0.000000000  0.250000000  0.500000000
     0.500000000  0.750000000  0.500000000
     0.125000000  0.375000000  0.250000000
     0.375000000  0.875000000  0.250000000
     0.750000000  0.250000000  0.000000000
     0.625000000  0.375000000  0.750000000
     0.375000000  0.125000000  0.750000000
     0.375000000  0.875000000  0.750000000
     0.875000000  0.875000000  0.750000000
     0.750000000  0.000000000  0.000000000
     0.250000000  0.250000000  0.500000000
     0.625000000  0.125000000  0.750000000
     0.125000000  0.875000000  0.750000000
     0.500000000  0.250000000  0.000000000
     0.875000000  0.875000000  0.250000000
     0.625000000  0.625000000  0.250000000
     0.375000000  0.625000000  0.250000000
     0.625000000  0.875000000  0.250000000
     0.750000000  0.250000000  0.500000000
     0.125000000  0.625000000  0.250000000
     0.375000000  0.375000000  0.750000000
     0.000000000  0.750000000  0.500000000
     0.750000000  0.750000000  0.500000000
     0.250000000  0.000000000  0.500000000
     0.125000000  0.375000000  0.750000000
     0.250000000  0.250000000  0.000000000
     0.500000000  0.500000000  0.000000000
     0.000000000  0.750000000  0.000000000
     0.625000000  0.125000000  0.250000000
     0.500000000  0.750000000  0.000000000
     0.375000000  0.625000000  0.750000000
     0.875000000  0.625000000  0.750000000
     0.625000000  0.875000000  0.750000000
     0.375000000  0.125000000  0.250000000
     0.875000000  0.375000000  0.750000000
     0.000000000  0.000000000  0.500000000
     0.625000000  0.375000000  0.250000000
     0.875000000  0.375000000  0.250000000
     0.000000000  0.500000000  0.000000000
     0.250000000  0.750000000  0.000000000
     0.750000000  0.500000000  0.500000000

  ion indices of the primitive-cell ions
   primitive index   ion index
                 1           1
                 2           2
                 3           3
                 4           4
                 5           5
                 6           6
                 7           7
                 8           8
                 9           9
                10          10
                11          11
                12          12
                13          13
                14          14
                15          15
                16          16
                17          17
                18          18
                19          19
                20          20
                21          21
                22          22
                23          23
                24          24
                25          25
                26          26
                27          27
                28          28
                29          29
                30          30
                31          31
                32          32
                33          33
                34          34
                35          35
                36          36
                37          37
                38          38
                39          39
                40          40
                41          41
                42          42
                43          43
                44          44
                45          45
                46          46
                47          47
                48          48
                49          49
                50          50
                51          51
                52          52
                53          53
                54          54
                55          55
                56          56
                57          57
                58          58
                59          59
                60          60
                61          61
                62          62
                63          63
                64          64

----------------------------------------------------------------------------------------

 
 
 KPOINTS: K-Spacing Value to Generate K-Mesh: 0.03

Automatic generation of k-mesh.
 Grid dimensions read from file:
 generate k-points for:    3    3    5

 Generating k-lattice:

  Cartesian coordinates                     Fractional coordinates (reciprocal lattice)
     0.025329281  0.000000000  0.000000000     0.333333333  0.000000000  0.000000000
     0.000000000  0.025329281  0.000000000     0.000000000  0.333333333  0.000000000
     0.000000000  0.000000000  0.030395137     0.000000000  0.000000000  0.200000000

  Length of vectors
     0.025329281  0.025329281  0.030395137

  Shift w.r.t. Gamma in fractional coordinates (k-lattice)
     0.000000000  0.000000000  0.000000000

 
 Subroutine IBZKPT returns following result:
 ===========================================
 
 Found     23 irreducible k-points:
 
 Following reciprocal coordinates:
            Coordinates               Weight
  0.000000  0.000000  0.000000      1.000000
  0.333333  0.000000  0.000000      2.000000
  0.000000  0.333333  0.000000      2.000000
  0.333333  0.333333  0.000000      2.000000
 -0.333333  0.333333  0.000000      2.000000
  0.000000  0.000000  0.200000      2.000000
  0.333333  0.000000  0.200000      2.000000
  0.000000  0.333333  0.200000      2.000000
 -0.333333  0.000000  0.200000      2.000000
  0.000000 -0.333333  0.200000      2.000000
  0.333333  0.333333  0.200000      2.000000
 -0.333333  0.333333  0.200000      2.000000
 -0.333333 -0.333333  0.200000      2.000000
  0.333333 -0.333333  0.200000      2.000000
  0.000000  0.000000  0.400000      2.000000
  0.333333  0.000000  0.400000      2.000000
  0.000000  0.333333  0.400000      2.000000
 -0.333333  0.000000  0.400000      2.000000
  0.000000 -0.333333  0.400000      2.000000
  0.333333  0.333333  0.400000      2.000000
 -0.333333  0.333333  0.400000      2.000000
 -0.333333 -0.333333  0.400000      2.000000
  0.333333 -0.333333  0.400000      2.000000
 
 Following cartesian coordinates:
            Coordinates               Weight
  0.000000  0.000000  0.000000      1.000000
  0.025329  0.000000  0.000000      2.000000
  0.000000  0.025329  0.000000      2.000000
  0.025329  0.025329  0.000000      2.000000
 -0.025329  0.025329  0.000000      2.000000
  0.000000  0.000000  0.030395      2.000000
  0.025329  0.000000  0.030395      2.000000
  0.000000  0.025329  0.030395      2.000000
 -0.025329  0.000000  0.030395      2.000000
  0.000000 -0.025329  0.030395      2.000000
  0.025329  0.025329  0.030395      2.000000
 -0.025329  0.025329  0.030395      2.000000
 -0.025329 -0.025329  0.030395      2.000000
  0.025329 -0.025329  0.030395      2.000000
  0.000000  0.000000  0.060790      2.000000
  0.025329  0.000000  0.060790      2.000000
  0.000000  0.025329  0.060790      2.000000
 -0.025329  0.000000  0.060790      2.000000
  0.000000 -0.025329  0.060790      2.000000
  0.025329  0.025329  0.060790      2.000000
 -0.025329  0.025329  0.060790      2.000000
 -0.025329 -0.025329  0.060790      2.000000
  0.025329 -0.025329  0.060790      2.000000
 


--------------------------------------------------------------------------------------------------------




 Dimension of arrays:
   k-points           NKPTS =     23   k-points in BZ     NKDIM =     23   number of bands    NBANDS=    496
   number of dos      NEDOS =    301   number of ions     NIONS =     64
   non local maximal  LDIM  =      6   non local SUM 2l+1 LMDIM =     18
   total plane-waves  NPLWV = 176400
   max r-space proj   IRMAX =      1   max aug-charges    IRDMAX=   9034
   dimension x,y,z NGX =    70 NGY =   70 NGZ =   36
   dimension x,y,z NGXF=   140 NGYF=  140 NGZF=   72
   support grid    NGXF=   140 NGYF=  140 NGZF=   72
   ions per type =              14  20  20  10
   NGX,Y,Z   is equivalent  to a cutoff of   8.84,  8.84,  9.10 a.u.
   NGXF,Y,Z  is equivalent  to a cutoff of  17.69, 17.69, 18.19 a.u.

 SYSTEM =  unknown system                          
 POSCAR =  Nb-Mo-Ta-W alloy                        

 Startparameter for this run:
   NWRITE =      2    write-flag & timer
   PREC   = accura    normal or accurate (medium, high low for compatibility)
   ISTART =      0    job   : 0-new  1-cont  2-samecut
   ICHARG =      2    charge: 1-file 2-atom 10-const
   ISPIN  =      1    spin polarized calculation?
   LNONCOLLINEAR =      F non collinear calculations
   LSORBIT =      F    spin-orbit coupling
   INIWAV =      1    electr: 0-lowe 1-rand  2-diag
   LASPH  =      F    aspherical Exc in radial PAW
 Electronic Relaxation 1
   ENCUT  =  250.0 eV  18.37 Ry    4.29 a.u.  16.97 16.97  8.48*2*pi/ulx,y,z
   ENINI  =  250.0     initial cutoff
   ENAUG  =  455.7 eV  augmentation charge cutoff
   NELM   =     80;   NELMIN=  2; NELMDL= -5     # of ELM steps 
   EDIFF  = 0.1E-07   stopping-criterion for ELM
   LREAL  =      F    real-space projection
   NLSPLINE    = F    spline interpolate recip. space projectors
   LCOMPAT=      F    compatible to vasp.4.4
   GGA_COMPAT  = T    GGA compatible to vasp.4.4-vasp.4.6
   LMAXPAW     = -100 max onsite density
   LMAXMIX     =    2 max onsite mixed and CHGCAR
   VOSKOWN=      0    Vosko Wilk Nusair interpolation
   ROPT   =    0.00000   0.00000   0.00000   0.00000
 Ionic relaxation
   EDIFFG = -.1E-01   stopping-criterion for IOM
   NSW    =      0    number of steps for IOM
   NBLOCK =      1;   KBLOCK =      1    inner block; outer block 
   IBRION =     -1    ionic relax: 0-MD 1-quasi-New 2-CG
   NFREE  =      0    steps in history (QN), initial steepest desc. (CG)
   ISIF   =      2    stress and relaxation
   IWAVPR =     10    prediction:  0-non 1-charg 2-wave 3-comb
   ISYM   =      2    0-nonsym 1-usesym 2-fastsym
   LCORR  =      T    Harris-Foulkes like correction to forces

   POTIM  = 0.5000    time-step for ionic-motion
   TEIN   =    0.0    initial temperature
   TEBEG  =    0.0;   TEEND  =   0.0 temperature during run
   SMASS  =  -3.00    Nose mass-parameter (am)
   estimated Nose-frequenzy (Omega)   =  0.10E-29 period in steps = 0.13E+47 mass=  -0.396E-26a.u.
   SCALEE = 1.0000    scale energy and forces
   NPACO  =    256;   APACO  = 10.0  distance and # of slots for P.C.
   PSTRESS=    0.0 pullay stress

  Mass of Ions in am
   POMASS =  92.91 95.94180.95183.85
  Ionic Valenz
   ZVAL   =  13.00 14.00 11.00 14.00
  Atomic Wigner-Seitz radii
   RWIGS  =  -1.00 -1.00 -1.00 -1.00
  virtual crystal weights 
   VCA    =   1.00  1.00  1.00  1.00
   NELECT =     822.0000    total number of electrons
   NUPDOWN=      -1.0000    fix difference up-down

 DOS related values:
   EMIN   =  10.00;   EMAX   =-10.00  energy-range for DOS
   EFERMI =   0.00
   ISMEAR =     0;   SIGMA  =   0.02  broadening in eV -4-tet -1-fermi 0-gaus

 Electronic relaxation 2 (details)
   IALGO  =     38    algorithm
   LDIAG  =      T    sub-space diagonalisation (order eigenvalues)
   LSUBROT=      F    optimize rotation matrix (better conditioning)
   TURBO    =      0    0=normal 1=particle mesh
   IRESTART =      0    0=no restart 2=restart with 2 vectors
   NREBOOT  =      0    no. of reboots
   NMIN     =      0    reboot dimension
   EREF     =   0.00    reference energy to select bands
   IMIX   =      4    mixing-type and parameters
     AMIX     =   0.40;   BMIX     =  1.00
     AMIX_MAG =   1.60;   BMIX_MAG =  1.00
     AMIN     =   0.10
     WC   =   100.;   INIMIX=   1;  MIXPRE=   1;  MAXMIX= -45

 Intra band minimization:
   WEIMIN = 0.0000     energy-eigenvalue tresh-hold
   EBREAK =  0.50E-11  absolut break condition
   DEPER  =   0.30     relativ break condition  

   TIME   =   0.40     timestep for ELM

  volume/ion in A,a.u.               =      17.81       120.16
  Fermi-wavevector in a.u.,A,eV,Ry     =   1.468203  2.774502 29.329006  2.155621
  Thomas-Fermi vector in A             =   2.583729
 
 Write flags
   LWAVE        =      F    write WAVECAR
   LDOWNSAMPLE  =      F    k-point downsampling of WAVECAR
   LCHARG       =      F    write CHGCAR
   LVTOT        =      F    write LOCPOT, total local potential
   LVHAR        =      F    write LOCPOT, Hartree potential only
   LELF         =      F    write electronic localiz. function (ELF)
   LORBIT       =      0    0 simple, 1 ext, 2 COOP (PROOUT), +10 PAW based schemes


 Dipole corrections
   LMONO  =      F    monopole corrections only (constant potential shift)
   LDIPOL =      F    correct potential (dipole corrections)
   IDIPOL =      0    1-x, 2-y, 3-z, 4-all directions 
   EPSILON=  1.0000000 bulk dielectric constant

 Core level calculations are selected ICORELEVEL =  1
 Exchange correlation treatment:
   GGA     =    PE    GGA type
   LEXCH   =     8    internal setting for exchange type
   LIBXC   =     F    Libxc                    
   VOSKOWN =     0    Vosko Wilk Nusair interpolation
   LHFCALC =     F    Hartree Fock is set to
   LHFONE  =     F    Hartree Fock one center treatment
   AEXX    =    0.0000 exact exchange contribution

 Linear response parameters
   LEPSILON=     F    determine dielectric tensor
   LRPA    =     F    only Hartree local field effects (RPA)
   LNABLA  =     F    use nabla operator in PAW spheres
   LVEL    =     F    velocity operator in full k-point grid
   CSHIFT  =0.1000    complex shift for real part using Kramers Kronig
   OMEGAMAX=  -1.0    maximum frequency
   DEG_THRESHOLD= 0.2000000E-02 threshold for treating states as degnerate
   RTIME   =   -0.100 relaxation time in fs
  (WPLASMAI=    0.000 imaginary part of plasma frequency in eV, 0.658/RTIME)
   DFIELD  = 0.0000000 0.0000000 0.0000000 field for delta impulse in time
 
  Optional k-point grid parameters
   LKPOINTS_OPT  =     F    use optional k-point grid
   KPOINTS_OPT_MODE=     1    mode for optional k-point grid
 
 Orbital magnetization related:
   ORBITALMAG=     F  switch on orbital magnetization
   LCHIMAG   =     F  perturbation theory with respect to B field
   DQ        =  0.001000  dq finite difference perturbation B field
   LLRAUG    =     F  two centre corrections for induced B field



--------------------------------------------------------------------------------------------------------


 Static calculation
 charge density and potential will be updated during run
 non-spin polarized calculation
 Variant of blocked Davidson
 Davidson routine will perform the subspace rotation
 perform sub-space diagonalisation
    after iterative eigenvector-optimisation
 modified Broyden-mixing scheme, WC =      100.0
 initial mixing is a Kerker type mixing with AMIX =  0.4000 and BMIX =      1.0000
 Hartree-type preconditioning will be used
 using additional bands           85
 reciprocal scheme for non local part
 use partial core corrections
 calculate Harris-corrections to forces 
   (improved forces if not selfconsistent)
 use gradient corrections 
 use of overlap-Matrix (Vanderbilt PP)
 Gauss-broadening in eV      SIGMA  =   0.02


--------------------------------------------------------------------------------------------------------


  energy-cutoff  :      250.00
  volume of cell :     1139.56
      direct lattice vectors                 reciprocal lattice vectors
    13.160000000  0.000000000  0.000000000     0.075987842  0.000000000  0.000000000
     0.000000000 13.160000000  0.000000000     0.000000000  0.075987842  0.000000000
     0.000000000  0.000000000  6.580000000     0.000000000  0.000000000  0.151975684

  length of vectors
    13.160000000 13.160000000  6.580000000     0.075987842  0.075987842  0.151975684


 
 k-points in units of 2pi/SCALE and weight: K-Spacing Value to Generate K-Mesh: 0.03
   0.00000000  0.00000000  0.00000000       0.022
   0.02532928  0.00000000  0.00000000       0.044
   0.00000000  0.02532928  0.00000000       0.044
   0.02532928  0.02532928  0.00000000       0.044
  -0.02532928  0.02532928  0.00000000       0.044
   0.00000000  0.00000000  0.03039514       0.044
   0.02532928  0.00000000  0.03039514       0.044
   0.00000000  0.02532928  0.03039514       0.044
  -0.02532928  0.00000000  0.03039514       0.044
   0.00000000 -0.02532928  0.03039514       0.044
   0.02532928  0.02532928  0.03039514       0.044
  -0.02532928  0.02532928  0.03039514       0.044
  -0.02532928 -0.02532928  0.03039514       0.044
   0.02532928 -0.02532928  0.03039514       0.044
   0.00000000  0.00000000  0.06079027       0.044
   0.02532928  0.00000000  0.06079027       0.044
   0.00000000  0.02532928  0.06079027       0.044
  -0.02532928  0.00000000  0.06079027       0.044
   0.00000000 -0.02532928  0.06079027       0.044
   0.02532928  0.02532928  0.06079027       0.044
  -0.02532928  0.02532928  0.06079027       0.044
  -0.02532928 -0.02532928  0.06079027       0.044
   0.02532928 -0.02532928  0.06079027       0.044
 
 k-points in reciprocal lattice and weights: K-Spacing Value to Generate K-Mesh: 0.03
   0.00000000  0.00000000  0.00000000       0.022
   0.33333333  0.00000000  0.00000000       0.044
   0.00000000  0.33333333  0.00000000       0.044
   0.33333333  0.33333333  0.00000000       0.044
  -0.33333333  0.33333333  0.00000000       0.044
   0.00000000  0.00000000  0.20000000       0.044
   0.33333333  0.00000000  0.20000000       0.044
   0.00000000  0.33333333  0.20000000       0.044
  -0.33333333  0.00000000  0.20000000       0.044
   0.00000000 -0.33333333  0.20000000       0.044
   0.33333333  0.33333333  0.20000000       0.044
  -0.33333333  0.33333333  0.20000000       0.044
  -0.33333333 -0.33333333  0.20000000       0.044
   0.33333333 -0.33333333  0.20000000       0.044
   0.00000000  0.00000000  0.40000000       0.044
   0.33333333  0.00000000  0.40000000       0.044
   0.00000000  0.33333333  0.40000000       0.044
  -0.33333333  0.00000000  0.40000000       0.044
   0.00000000 -0.33333333  0.40000000       0.044
   0.33333333  0.33333333  0.40000000       0.044
  -0.33333333  0.33333333  0.40000000       0.044
  -0.33333333 -0.33333333  0.40000000       0.044
   0.33333333 -0.33333333  0.40000000       0.044
 
 position of ions in fractional coordinates (direct lattice) 
   0.75000000  0.75000000  0.00000000
   0.50000000  0.25000000  0.50000000
   0.75000000  0.00000000  0.50000000
   0.00000000  0.50000000  0.50000000
   0.50000000  0.00000000  0.50000000
   0.25000000  0.50000000  0.50000000
   0.62500000  0.62500000  0.75000000
   0.87500000  0.12500000  0.75000000
   0.87500000  0.12500000  0.25000000
   0.50000000  0.50000000  0.50000000
   0.87500000  0.62500000  0.25000000
   0.00000000  0.25000000  0.00000000
   0.12500000  0.12500000  0.25000000
   0.12500000  0.62500000  0.75000000
   0.75000000  0.50000000  0.00000000
   0.25000000  0.75000000  0.50000000
   0.12500000  0.87500000  0.25000000
   0.25000000  0.50000000  0.00000000
   0.00000000  0.00000000  0.00000000
   0.25000000  0.00000000  0.00000000
   0.37500000  0.37500000  0.25000000
   0.12500000  0.12500000  0.75000000
   0.50000000  0.00000000  0.00000000
   0.00000000  0.25000000  0.50000000
   0.50000000  0.75000000  0.50000000
   0.12500000  0.37500000  0.25000000
   0.37500000  0.87500000  0.25000000
   0.75000000  0.25000000  0.00000000
   0.62500000  0.37500000  0.75000000
   0.37500000  0.12500000  0.75000000
   0.37500000  0.87500000  0.75000000
   0.87500000  0.87500000  0.75000000
   0.75000000  0.00000000  0.00000000
   0.25000000  0.25000000  0.50000000
   0.62500000  0.12500000  0.75000000
   0.12500000  0.87500000  0.75000000
   0.50000000  0.25000000  0.00000000
   0.87500000  0.87500000  0.25000000
   0.62500000  0.62500000  0.25000000
   0.37500000  0.62500000  0.25000000
   0.62500000  0.87500000  0.25000000
   0.75000000  0.25000000  0.50000000
   0.12500000  0.62500000  0.25000000
   0.37500000  0.37500000  0.75000000
   0.00000000  0.75000000  0.50000000
   0.75000000  0.75000000  0.50000000
   0.25000000  0.00000000  0.50000000
   0.12500000  0.37500000  0.75000000
   0.25000000  0.25000000  0.00000000
   0.50000000  0.50000000  0.00000000
   0.00000000  0.75000000  0.00000000
   0.62500000  0.12500000  0.25000000
   0.50000000  0.75000000  0.00000000
   0.37500000  0.62500000  0.75000000
   0.87500000  0.62500000  0.75000000
   0.62500000  0.87500000  0.75000000
   0.37500000  0.12500000  0.25000000
   0.87500000  0.37500000  0.75000000
   0.00000000  0.00000000  0.50000000
   0.62500000  0.37500000  0.25000000
   0.87500000  0.37500000  0.25000000
   0.00000000  0.50000000  0.00000000
   0.25000000  0.75000000  0.00000000
   0.75000000  0.50000000  0.50000000
 
 position of ions in cartesian coordinates  (Angst):
   9.87000000  9.87000000  0.00000000
   6.58000000  3.29000000  3.29000000
   9.87000000  0.00000000  3.29000000
   0.00000000  6.58000000  3.29000000
   6.58000000  0.00000000  3.29000000
   3.29000000  6.58000000  3.29000000
   8.22500000  8.22500000  4.93500000
  11.51500000  1.64500000  4.93500000
  11.51500000  1.64500000  1.64500000
   6.58000000  6.58000000  3.29000000
  11.51500000  8.22500000  1.64500000
   0.00000000  3.29000000  0.00000000
   1.64500000  1.64500000  1.64500000
   1.64500000  8.22500000  4.93500000
   9.87000000  6.58000000  0.00000000
   3.29000000  9.87000000  3.29000000
   1.64500000 11.51500000  1.64500000
   3.29000000  6.58000000  0.00000000
   0.00000000  0.00000000  0.00000000
   3.29000000  0.00000000  0.00000000
   4.93500000  4.93500000  1.64500000
   1.64500000  1.64500000  4.93500000
   6.58000000  0.00000000  0.00000000
   0.00000000  3.29000000  3.29000000
   6.58000000  9.87000000  3.29000000
   1.64500000  4.93500000  1.64500000
   4.93500000 11.51500000  1.64500000
   9.87000000  3.29000000  0.00000000
   8.22500000  4.93500000  4.93500000
   4.93500000  1.64500000  4.93500000
   4.93500000 11.51500000  4.93500000
  11.51500000 11.51500000  4.93500000
   9.87000000  0.00000000  0.00000000
   3.29000000  3.29000000  3.29000000
   8.22500000  1.64500000  4.93500000
   1.64500000 11.51500000  4.93500000
   6.58000000  3.29000000  0.00000000
  11.51500000 11.51500000  1.64500000
   8.22500000  8.22500000  1.64500000
   4.93500000  8.22500000  1.64500000
   8.22500000 11.51500000  1.64500000
   9.87000000  3.29000000  3.29000000
   1.64500000  8.22500000  1.64500000
   4.93500000  4.93500000  4.93500000
   0.00000000  9.87000000  3.29000000
   9.87000000  9.87000000  3.29000000
   3.29000000  0.00000000  3.29000000
   1.64500000  4.93500000  4.93500000
   3.29000000  3.29000000  0.00000000
   6.58000000  6.58000000  0.00000000
   0.00000000  9.87000000  0.00000000
   8.22500000  1.64500000  1.64500000
   6.58000000  9.87000000  0.00000000
   4.93500000  8.22500000  4.93500000
  11.51500000  8.22500000  4.93500000
   8.22500000 11.51500000  4.93500000
   4.93500000  1.64500000  1.64500000
  11.51500000  4.93500000  4.93500000
   0.00000000  0.00000000  3.29000000
   8.22500000  4.93500000  1.64500000
  11.51500000  4.93500000  1.64500000
   0.00000000  6.58000000  0.00000000
   3.29000000  9.87000000  0.00000000
   9.87000000  6.58000000  3.29000000
 


--------------------------------------------------------------------------------------------------------


 k-point   1 :   0.0000 0.0000 0.0000  plane waves:   10181
 k-point   2 :   0.3333 0.0000 0.0000  plane waves:   10238
 k-point   3 :   0.0000 0.3333 0.0000  plane waves:   10238
 k-point   4 :   0.3333 0.3333 0.0000  plane waves:   10248
 k-point   5 :  -0.3333 0.3333 0.0000  plane waves:   10248
 k-point   6 :   0.0000 0.0000 0.2000  plane waves:   10193
 k-point   7 :   0.3333 0.0000 0.2000  plane waves:   10246
 k-point   8 :   0.0000 0.3333 0.2000  plane waves:   10246
 k-point   9 :  -0.3333 0.0000 0.2000  plane waves:   10246
 k-point  10 :   0.0000-0.3333 0.2000  plane waves:   10246
 k-point  11 :   0.3333 0.3333 0.2000  plane waves:   10238
 k-point  12 :  -0.3333 0.3333 0.2000  plane waves:   10238
 k-point  13 :  -0.3333-0.3333 0.2000  plane waves:   10238
 k-point  14 :   0.3333-0.3333 0.2000  plane waves:   10238
 k-point  15 :   0.0000 0.0000 0.4000  plane waves:   10201
 k-point  16 :   0.3333 0.0000 0.4000  plane waves:   10223
 k-point  17 :   0.0000 0.3333 0.4000  plane waves:   10223
 k-point  18 :  -0.3333 0.0000 0.4000  plane waves:   10223
 k-point  19 :   0.0000-0.3333 0.4000  plane waves:   10223
 k-point  20 :   0.3333 0.3333 0.4000  plane waves:   10193
 k-point  21 :  -0.3333 0.3333 0.4000  plane waves:   10193
 k-point  22 :  -0.3333-0.3333 0.4000  plane waves:   10193
 k-point  23 :   0.3333-0.3333 0.4000  plane waves:   10193

 maximum and minimum number of plane-waves per node :       880      830

 maximum number of plane-waves:     10248
 maximum index in each direction: 
   IXMAX=   17   IYMAX=   17   IZMAX=    8
   IXMIN=  -17   IYMIN=  -17   IZMIN=   -8


 parallel 3D FFT for wavefunctions:
    minimum data exchange during FFTs selected (reduces bandwidth)
 parallel 3D FFT for charge:
    minimum data exchange during FFTs selected (reduces bandwidth)


 total amount of memory used by VASP MPI-rank0    90637. kBytes
=======================================================================

   base      :      30000. kBytes
   nonl-proj :      12216. kBytes
   fftplans  :       1504. kBytes
   grid      :       2835. kBytes
   one-center:         93. kBytes
   wavefun   :      43989. kBytes
 
     INWAV:  cpu time      0.0000: real time      0.0002
 Broyden mixing: mesh for mixing (old mesh)
   NGX = 33   NGY = 33   NGZ = 17
  (NGX  =140   NGY  =140   NGZ  = 72)
  gives a total of  18513 points

 initial charge density was supplied:
 charge density of overlapping atoms calculated
 number of electron     822.0000000 magnetization 
 keeping initial charge density in first step


--------------------------------------------------------------------------------------------------------


 Maximum index for augmentation-charges          505 (set IRDMAX)


--------------------------------------------------------------------------------------------------------


 First call to EWALD:  gamma=   0.170
 Maximum number of real-space cells 2x 2x 4
 Maximum number of reciprocal cells 3x 3x 2

    FEWALD:  cpu time      0.1524: real time      0.1528


--------------------------------------- Iteration      1(   1)  ---------------------------------------


    POTLOK:  cpu time      0.3111: real time      0.3411
    SETDIJ:  cpu time      0.2411: real time      0.2421
     EDDAV:  cpu time     87.8983: real time     88.2376
       DOS:  cpu time      0.1333: real time      0.1337
    --------------------------------------------
      LOOP:  cpu time     88.5839: real time     88.9545

 eigenvalue-minimisations  : 23288
 total energy-change (2. order) : 0.7652106E+04  (-0.3215613E+05)
 number of electron     822.0000000 magnetization 
 augmentation part      822.0000000 magnetization 

 Free energy of the ion-electron system (eV)
  ---------------------------------------------------
  alpha Z        PSCENC =      7297.69399961
  Ewald energy   TEWEN  =    -84262.29894239
  -Hartree energ DENC   =    -15961.07351025
  -exchange      EXHF   =         0.00000000
  -V(xc)+E(xc)   XCENC  =      3166.44298209
  PAW double counting   =     78283.16150631   -77091.28012081
  entropy T*S    EENTRO =        -0.00481292
  eigenvalues    EBANDS =     -2392.10463832
  atomic energy  EATOM  =     98611.57001927
  Solvation  Ediel_sol  =         0.00000000
  ---------------------------------------------------
  free energy    TOTEN  =      7652.10648258 eV

  energy without entropy =     7652.11129550  energy(sigma->0) =     7652.10888904


--------------------------------------------------------------------------------------------------------




--------------------------------------- Iteration      1(   2)  ---------------------------------------


     EDDAV:  cpu time     45.5249: real time     45.7783
       DOS:  cpu time      0.2598: real time      0.2607
    --------------------------------------------
      LOOP:  cpu time     45.7847: real time     46.0390

 eigenvalue-minimisations  : 23032
 total energy-change (2. order) :-0.7700038E+04  (-0.7465037E+04)
 number of electron     822.0000000 magnetization 
 augmentation part      822.0000000 magnetization 

 Free energy of the ion-electron system (eV)
  ---------------------------------------------------
  alpha Z        PSCENC =      7297.69399961
  Ewald energy   TEWEN  =    -84262.29894239
  -Hartree energ DENC   =    -15961.07351025
  -exchange      EXHF   =         0.00000000
  -V(xc)+E(xc)   XCENC  =      3166.44298209
  PAW double counting   =     78283.16150631   -77091.28012081
  entropy T*S    EENTRO =        -0.00748520
  eigenvalues    EBANDS =    -10092.13954092
  atomic energy  EATOM  =     98611.57001927
  Solvation  Ediel_sol  =         0.00000000
  ---------------------------------------------------
  free energy    TOTEN  =       -47.93109230 eV

  energy without entropy =      -47.92360709  energy(sigma->0) =      -47.92734969


--------------------------------------------------------------------------------------------------------




--------------------------------------- Iteration      1(   3)  ---------------------------------------


     EDDAV:  cpu time     66.1111: real time     66.4034
       DOS:  cpu time      0.4850: real time      0.4868
    --------------------------------------------
      LOOP:  cpu time     66.5960: real time     66.8901

 eigenvalue-minimisations  : 34000
 total energy-change (2. order) :-0.6695211E+03  (-0.6287359E+03)
 number of electron     822.0000000 magnetization 
 augmentation part      822.0000000 magnetization 

 Free energy of the ion-electron system (eV)
  ---------------------------------------------------
  alpha Z        PSCENC =      7297.69399961
  Ewald energy   TEWEN  =    -84262.29894239
  -Hartree energ DENC   =    -15961.07351025
  -exchange      EXHF   =         0.00000000
  -V(xc)+E(xc)   XCENC  =      3166.44298209
  PAW double counting   =     78283.16150631   -77091.28012081
  entropy T*S    EENTRO =        -0.00901202
  eigenvalues    EBANDS =    -10761.65908887
  atomic energy  EATOM  =     98611.57001927
  Solvation  Ediel_sol  =         0.00000000
  ---------------------------------------------------
  free energy    TOTEN  =      -717.45216705 eV

  energy without entropy =     -717.44315504  energy(sigma->0) =     -717.44766105


--------------------------------------------------------------------------------------------------------




--------------------------------------- Iteration      1(   4)  ---------------------------------------


     EDDAV:  cpu time     67.9470: real time     68.2502
       DOS:  cpu time      0.4379: real time      0.4395
    --------------------------------------------
      LOOP:  cpu time     68.3848: real time     68.6897

 eigenvalue-minimisations  : 33648
 total energy-change (2. order) :-0.4826491E+02  (-0.4635124E+02)
 number of electron     822.0000000 magnetization 
 augmentation part      822.0000000 magnetization 

 Free energy of the ion-electron system (eV)
  ---------------------------------------------------
  alpha Z        PSCENC =      7297.69399961
  Ewald energy   TEWEN  =    -84262.29894239
  -Hartree energ DENC   =    -15961.07351025
  -exchange      EXHF   =         0.00000000
  -V(xc)+E(xc)   XCENC  =      3166.44298209
  PAW double counting   =     78283.16150631   -77091.28012081
  entropy T*S    EENTRO =        -0.00568956
  eigenvalues    EBANDS =    -10809.92732569
  atomic energy  EATOM  =     98611.57001927
  Solvation  Ediel_sol  =         0.00000000
  ---------------------------------------------------
  free energy    TOTEN  =      -765.71708141 eV

  energy without entropy =     -765.71139186  energy(sigma->0) =     -765.71423664


--------------------------------------------------------------------------------------------------------




--------------------------------------- Iteration      1(   5)  ---------------------------------------


     EDDAV:  cpu time     74.6426: real time     74.9743
       DOS:  cpu time      0.4742: real time      0.4760
    CHARGE:  cpu time      0.7462: real time      0.7487
    MIXING:  cpu time      0.0004: real time      0.0004
    --------------------------------------------
      LOOP:  cpu time     75.8634: real time     76.1994

 eigenvalue-minimisations  : 37872
 total energy-change (2. order) :-0.2974242E+01  (-0.2945126E+01)
 number of electron     821.9999742 magnetization 
 augmentation part      167.7926895 magnetization 

 Broyden mixing:
  rms(total) = 0.10441E+02    rms(broyden)= 0.10439E+02
  rms(prec ) = 0.10759E+02
  weight for this iteration     100.00

 Free energy of the ion-electron system (eV)
  ---------------------------------------------------
  alpha Z        PSCENC =      7297.69399961
  Ewald energy   TEWEN  =    -84262.29894239
  -Hartree energ DENC   =    -15961.07351025
  -exchange      EXHF   =         0.00000000
  -V(xc)+E(xc)   XCENC  =      3166.44298209
  PAW double counting   =     78283.16150631   -77091.28012081
  entropy T*S    EENTRO =        -0.00587588
  eigenvalues    EBANDS =    -10812.90138116
  atomic energy  EATOM  =     98611.57001927
  Solvation  Ediel_sol  =         0.00000000
  ---------------------------------------------------
  free energy    TOTEN  =      -768.69132321 eV

  energy without entropy =     -768.68544733  energy(sigma->0) =     -768.68838527


--------------------------------------------------------------------------------------------------------




--------------------------------------- Iteration      1(   6)  ---------------------------------------


    POTLOK:  cpu time      0.0121: real time      0.0122
    SETDIJ:  cpu time      0.0039: real time      0.0039
     EDDAV:  cpu time     45.7734: real time     45.9737
       DOS:  cpu time      0.2625: real time      0.2635
    CHARGE:  cpu time      0.7127: real time      0.7150
    MIXING:  cpu time      0.0006: real time      0.0006
    --------------------------------------------
      LOOP:  cpu time     46.7651: real time     46.9689

 eigenvalue-minimisations  : 27656
 total energy-change (2. order) : 0.2732468E+02  (-0.9781315E+01)
 number of electron     821.9999741 magnetization 
 augmentation part      175.0623716 magnetization 

 Broyden mixing:
  rms(total) = 0.39523E+01    rms(broyden)= 0.39514E+01
  rms(prec ) = 0.47018E+01
  weight for this iteration     100.00

 eigenvalues of (default mixing * dielectric matrix)
  average eigenvalue GAMMA=   1.3988
  1.3988

 Free energy of the ion-electron system (eV)
  ---------------------------------------------------
  alpha Z        PSCENC =      7297.69399961
  Ewald energy   TEWEN  =    -84262.29894239
  -Hartree energ DENC   =    -15052.21055045
  -exchange      EXHF   =         0.00000000
  -V(xc)+E(xc)   XCENC  =      3122.20811982
  PAW double counting   =     92100.67728682   -91020.66077559
  entropy T*S    EENTRO =        -0.00985891
  eigenvalues    EBANDS =    -11538.33594206
  atomic energy  EATOM  =     98611.57001927
  Solvation  Ediel_sol  =         0.00000000
  ---------------------------------------------------
  free energy    TOTEN  =      -741.36664389 eV

  energy without entropy =     -741.35678497  energy(sigma->0) =     -741.36171443


--------------------------------------------------------------------------------------------------------




--------------------------------------- Iteration      1(   7)  ---------------------------------------


    POTLOK:  cpu time      0.0139: real time      0.0141
    SETDIJ:  cpu time      0.0041: real time      0.0041
     EDDAV:  cpu time     68.7608: real time     69.0623
       DOS:  cpu time      0.6140: real time      0.6164
    CHARGE:  cpu time      0.8013: real time      0.8041
    MIXING:  cpu time      0.0010: real time      0.0010
    --------------------------------------------
      LOOP:  cpu time     70.1951: real time     70.5020

 eigenvalue-minimisations  : 32664
 total energy-change (2. order) :-0.2207255E+02  (-0.1190944E+02)
 number of electron     821.9999729 magnetization 
 augmentation part      173.8615180 magnetization 

 Broyden mixing:
  rms(total) = 0.32137E+01    rms(broyden)= 0.32111E+01
  rms(prec ) = 0.75448E+01
  weight for this iteration     100.00

 eigenvalues of (default mixing * dielectric matrix)
  average eigenvalue GAMMA=   1.0424
  1.6131  0.4718

 Free energy of the ion-electron system (eV)
  ---------------------------------------------------
  alpha Z        PSCENC =      7297.69399961
  Ewald energy   TEWEN  =    -84262.29894239
  -Hartree energ DENC   =    -14879.62295536
  -exchange      EXHF   =         0.00000000
  -V(xc)+E(xc)   XCENC  =      3109.82533032
  PAW double counting   =    100600.29930787   -99551.65991618
  entropy T*S    EENTRO =        -0.01367791
  eigenvalues    EBANDS =    -11689.23236232
  atomic energy  EATOM  =     98611.57001927
  Solvation  Ediel_sol  =         0.00000000
  ---------------------------------------------------
  free energy    TOTEN  =      -763.43919708 eV

  energy without entropy =     -763.42551917  energy(sigma->0) =     -763.43235813


--------------------------------------------------------------------------------------------------------




--------------------------------------- Iteration      1(   8)  ---------------------------------------


    POTLOK:  cpu time      0.0176: real time      0.0180
    SETDIJ:  cpu time      0.0045: real time      0.0045
     EDDAV:  cpu time     37.3783: real time     37.5349
       DOS:  cpu time      0.4826: real time      0.4845
    CHARGE:  cpu time      0.9752: real time      0.9786
    MIXING:  cpu time      0.2430: real time      0.2439
    --------------------------------------------
      LOOP:  cpu time     39.1012: real time     39.2644

 eigenvalue-minimisations  : 31720
 total energy-change (2. order) : 0.3004783E+02  (-0.6648704E+01)
 number of electron     821.9999737 magnetization 
 augmentation part      175.7370179 magnetization 

 Broyden mixing:
  rms(total) = 0.14495E+01    rms(broyden)= 0.14460E+01
  rms(prec ) = 0.28843E+01
  weight for this iteration     100.00

 eigenvalues of (default mixing * dielectric matrix)
  average eigenvalue GAMMA=   0.8904
  1.7035  0.6573  0.3105

 Free energy of the ion-electron system (eV)
  ---------------------------------------------------
  alpha Z        PSCENC =      7297.69399961
  Ewald energy   TEWEN  =    -84262.29894239
  -Hartree energ DENC   =    -14698.75060106
  -exchange      EXHF   =         0.00000000
  -V(xc)+E(xc)   XCENC  =      3102.54429900
  PAW double counting   =    103984.04872763  -102957.01335054
  entropy T*S    EENTRO =        -0.01184160
  eigenvalues    EBANDS =    -11811.17367433
  atomic energy  EATOM  =     98611.57001927
  Solvation  Ediel_sol  =         0.00000000
  ---------------------------------------------------
  free energy    TOTEN  =      -733.39136441 eV

  energy without entropy =     -733.37952281  energy(sigma->0) =     -733.38544361


--------------------------------------------------------------------------------------------------------




[...]
  0.002   0.004  -0.002  -0.006  -0.000  -0.003   0.015  -0.001   3.374  -0.047  -0.026   0.035   0.003  -1.430   0.034   0.009
  0.004   0.020   0.005  -0.003  -0.005   0.002   0.005   0.013  -0.047   3.430   0.017  -0.051  -0.027   0.034  -1.449  -0.008
  0.002   0.014  -0.001  -0.008  -0.001   0.002   0.016   0.003  -0.026   0.017   2.728   0.012  -0.019   0.009  -0.008  -1.243
  0.004  -0.005  -0.005  -0.001   0.005   0.013  -0.004   0.003   0.035  -0.051   0.012   3.393   0.018  -0.014   0.029  -0.005
 -0.000   0.025  -0.000  -0.000   0.002   0.001   0.000  -0.005   0.003  -0.027  -0.019   0.018   2.701  -0.002   0.013   0.010
 -0.002   0.004   0.001   0.003   0.000   0.002  -0.008  -0.002  -1.430   0.034   0.009  -0.014  -0.002   0.617  -0.020  -0.003
 -0.003  -0.009  -0.003   0.002   0.003   0.000  -0.004  -0.008   0.034  -1.449  -0.008   0.029   0.013  -0.020   0.624   0.004
 -0.002  -0.006   0.001   0.006   0.001  -0.001  -0.007  -0.001   0.009  -0.008  -1.243  -0.005   0.010  -0.003   0.004   0.574
 -0.003   0.010   0.003   0.001  -0.003  -0.008   0.002   0.000  -0.014   0.029  -0.005  -1.441  -0.008   0.006  -0.015   0.002
  0.000  -0.012   0.000   0.000  -0.001  -0.001  -0.000   0.002  -0.002   0.014   0.010  -0.008  -1.229   0.001  -0.007  -0.005


------------------------ aborting loop because EDIFF is reached ----------------------------------------


    CHARGE:  cpu time      0.6960: real time      0.6980
    FORLOC:  cpu time      0.0139: real time      0.0140
    FORNL :  cpu time     17.4976: real time     17.5608
    STRESS:  cpu time     13.6598: real time     13.7166
    FORCOR:  cpu time      0.0415: real time      0.0417
    FORHAR:  cpu time      0.1199: real time      0.1205
    MIXING:  cpu time      0.3648: real time      0.3662
    OFIELD:  cpu time      0.0000: real time      0.0000

  FORCE on cell =-STRESS in cart. coord.  units (eV):
  Direction    XX          YY          ZZ          XY          YZ          ZX
  --------------------------------------------------------------------------------------
  Alpha Z  7297.69400  7297.69400  7297.69400
  Ewald  -28102.81704-28204.40946-27955.50396   -38.03004   -35.30981    32.06855
  Hartree  4869.02379  4768.14960  5013.26243   -38.34653   -38.22215    31.88444
  E(xc)   -3761.98266 -3761.91354 -3761.95991    -0.01188     0.18924    -0.06929
  Local    6387.84836  6588.10768  6089.51556    76.86885    70.33825   -62.66147
  n-local -1691.55418 -1688.00937 -1690.93120    -0.73651     2.64276    -0.27947
  augment  2033.77216  2033.52172  2034.56672     0.01729     0.30691    -0.00066
  Kinetic 12871.97321 12870.81518 12879.36126     0.05936    -1.54890    -0.51373
  Fock        0.00000     0.00000     0.00000     0.00000     0.00000     0.00000
  -------------------------------------------------------------------------------------
  Total     -96.04237   -96.04419   -93.99511    -0.17947    -1.60370     0.42837
  in kB    -135.03172  -135.03428  -132.15335    -0.25232    -2.25474     0.60227
  external pressure =     -134.07 kB  Pullay stress =        0.00 kB


 VOLUME and BASIS-vectors are now :
 -----------------------------------------------------------------------------
  energy-cutoff  :      250.00
  volume of cell :     1139.56
      direct lattice vectors                 reciprocal lattice vectors
    13.160000000  0.000000000  0.000000000     0.075987842  0.000000000  0.000000000
     0.000000000 13.160000000  0.000000000     0.000000000  0.075987842  0.000000000
     0.000000000  0.000000000  6.580000000     0.000000000  0.000000000  0.151975684

  length of vectors
    13.160000000 13.160000000  6.580000000     0.075987842  0.075987842  0.151975684


 FORCES acting on ions
    electron-ion (+dipol)            ewald-force                    non-local-force                 convergence-correction
 -----------------------------------------------------------------------------------------------
   0.472E+02 -.167E+02 -.833E+02   -.470E+02 0.169E+02 0.825E+02   0.156E-01 -.919E-01 0.315E-01   -.276E-03 -.149E-03 0.404E-04
   -.431E+02 -.232E+01 -.266E+02   0.433E+02 0.248E+01 0.263E+02   -.345E+00 0.790E-01 0.123E+00   -.384E-03 -.956E-04 0.285E-04
   0.722E+02 0.334E+02 0.562E+02   -.723E+02 -.339E+02 -.557E+02   0.412E+00 0.662E-01 -.169E-01   0.250E-03 -.225E-03 0.152E-03
   -.865E+02 -.116E+03 0.223E+00   0.860E+02 0.115E+03 -.228E+00   -.861E-01 -.190E+00 -.607E-01   -.677E-03 -.779E-04 0.875E-04
   -.102E+03 -.145E+02 0.280E+02   0.101E+03 0.145E+02 -.278E+02   -.117E+00 -.265E+00 0.162E-01   -.573E-03 -.742E-03 0.195E-04
   -.721E+02 -.711E+02 -.366E+02   0.721E+02 0.705E+02 0.361E+02   -.309E-01 -.849E-02 0.291E-01   0.227E-03 0.305E-03 -.117E-04
   0.989E+02 -.546E+02 -.259E+02   -.989E+02 0.545E+02 0.257E+02   0.205E+00 0.624E-01 0.418E-01   -.160E-03 0.555E-03 -.275E-03
   0.939E+02 0.271E+02 0.286E+02   -.940E+02 -.272E+02 -.283E+02   0.207E+00 0.446E-01 0.100E+00   0.190E-03 0.412E-03 -.183E-03
   0.973E+02 0.527E+02 -.286E+02   -.971E+02 -.531E+02 0.283E+02   0.302E-01 0.259E+00 -.761E-01   0.127E-03 0.454E-03 0.172E-03
   0.724E+02 -.829E+02 -.813E+01   -.723E+02 0.819E+02 0.789E+01   0.235E+00 0.331E+00 0.596E-01   0.138E-03 0.740E-03 0.954E-04
   -.937E+01 -.170E+03 -.275E+02   0.929E+01 0.170E+03 0.273E+02   0.192E-02 -.205E+00 -.291E-01   -.149E-04 0.193E-03 0.332E-03
   -.478E+02 -.297E+01 0.181E+02   0.482E+02 0.360E+01 -.181E+02   -.165E+00 -.310E+00 0.499E-01   -.543E-03 -.244E-04 -.319E-03
   -.492E+02 0.865E+01 0.754E+01   0.488E+02 -.894E+01 -.733E+01   0.220E+00 0.172E+00 -.104E+00   -.863E-04 0.225E-03 0.540E-03
   -.131E+02 -.542E+02 0.175E+02   0.137E+02 0.543E+02 -.170E+02   -.189E+00 -.128E+00 -.183E+00   -.191E-03 0.517E-03 -.478E-03
   0.121E+03 -.119E+03 -.308E+02   -.121E+03 0.118E+03 0.307E+02   0.239E+00 -.313E+00 -.508E-01   0.729E-04 0.308E-03 -.151E-03
   0.201E+02 0.989E+02 -.823E+01   -.203E+02 -.985E+02 0.811E+01   0.328E+00 0.188E+00 -.359E-01   0.784E-03 0.404E-03 -.886E-04
   0.676E+02 0.119E+03 -.295E+02   -.678E+02 -.119E+03 0.294E+02   0.351E+00 0.611E-01 -.452E-01   0.388E-03 -.594E-03 0.547E-03
   -.106E+03 -.528E+02 0.391E+02   0.106E+03 0.522E+02 -.389E+02   -.383E+00 0.282E+00 0.122E+00   0.386E-03 0.285E-03 0.126E-05
   0.309E+02 0.119E+03 -.114E+02   -.308E+02 -.119E+03 0.113E+02   0.720E-01 0.337E-01 -.217E-01   -.293E-03 0.235E-03 -.136E-03
   0.923E+01 0.278E+02 0.188E+02   -.886E+01 -.275E+02 -.188E+02   -.453E-02 -.277E+00 -.750E-02   0.592E-03 -.312E-03 -.605E-04
   -.656E+02 -.696E+02 0.576E+02   0.655E+02 0.699E+02 -.577E+02   -.673E-01 -.285E+00 0.139E+00   0.133E-04 -.130E-03 0.301E-03
   -.606E+02 0.160E+01 -.802E+01   0.602E+02 -.187E+01 0.789E+01   0.168E+00 0.115E-01 0.319E-01   -.228E-03 0.395E-03 -.561E-03
   -.115E+03 -.102E+02 -.300E+02   0.115E+03 0.102E+02 0.299E+02   -.179E+00 -.798E-01 -.881E-01   -.319E-03 -.683E-03 0.600E-05
   -.825E+01 -.706E+01 -.195E+02   0.770E+01 0.782E+01 0.195E+02   0.387E+00 -.502E+00 -.115E-01   -.241E-03 -.175E-03 0.370E-03
   -.513E+02 0.107E+03 0.498E+02   0.517E+02 -.106E+03 -.497E+02   -.364E+00 0.944E-01 0.466E-01   -.236E-03 0.223E-05 -.318E-05
   -.902E+02 -.620E+02 0.188E+02   0.901E+02 0.620E+02 -.189E+02   -.793E-01 -.586E-02 0.139E+00   -.506E-03 -.309E-03 0.516E-03
   -.695E+02 0.864E+02 -.903E+01   0.696E+02 -.869E+02 0.882E+01   -.191E+00 0.331E+00 0.615E-01   -.381E-04 -.608E-03 0.441E-03
   0.130E+03 0.931E+02 -.174E+01   -.130E+03 -.923E+02 0.178E+01   0.242E-02 0.475E-01 -.427E-01   0.612E-03 -.788E-04 -.269E-03
   0.148E+03 0.204E+02 -.101E+02   -.148E+03 -.203E+02 0.102E+02   0.431E+00 -.172E-01 0.312E-01   0.313E-03 0.222E-03 -.902E-04
   -.642E+02 -.789E+02 -.100E+02   0.644E+02 0.791E+02 0.102E+02   -.273E+00 -.384E+00 -.150E-01   -.360E-03 -.298E-03 -.316E-03
   -.234E+02 0.826E+02 0.902E+01   0.228E+02 -.831E+02 -.882E+01   0.337E+00 0.295E+00 -.458E-01   0.814E-04 -.622E-03 -.431E-03
   0.895E+00 0.119E+03 0.313E+02   -.305E+00 -.119E+03 -.313E+02   -.354E+00 -.201E+00 0.951E-01   -.242E-03 -.436E-03 -.308E-03
   0.750E+02 0.434E+02 -.603E+02   -.752E+02 -.442E+02 0.600E+02   0.935E-01 0.416E+00 -.739E-01   0.246E-04 -.612E-04 -.941E-04
   -.647E+02 -.740E+02 -.497E+02   0.652E+02 0.738E+02 0.496E+02   -.379E+00 -.111E+00 -.435E-01   -.166E-04 -.388E-03 0.166E-03
   0.189E+02 -.219E+02 0.228E+02   -.183E+02 0.216E+02 -.222E+02   -.251E+00 -.193E+00 0.601E-01   0.271E-03 -.859E-04 0.964E-04
   0.336E+02 0.858E+02 0.234E+02   -.333E+02 -.858E+02 -.231E+02   0.104E+00 0.349E+00 -.328E-01   0.369E-03 -.404E-03 -.453E-03
   -.247E+01 -.232E+02 0.225E+02   0.196E+01 0.237E+02 -.222E+02   0.665E-01 -.238E+00 -.305E-01   -.152E-03 -.852E-04 -.175E-04
   0.368E+02 0.103E+03 -.249E+02   -.370E+02 -.102E+03 0.246E+02   0.151E+00 0.128E+00 -.333E-01   -.757E-04 -.369E-03 0.199E-03
   0.718E+02 -.708E+02 0.219E+02   -.715E+02 0.707E+02 -.217E+02   -.171E+00 -.173E+00 0.548E-01   -.141E-03 0.609E-03 0.232E-03
   -.648E+02 0.273E+02 0.304E+02   0.642E+02 -.269E+02 -.304E+02   -.991E-01 0.536E-01 0.115E+00   0.268E-03 0.746E-03 0.370E-03
   -.355E+02 0.656E+02 -.872E+01   0.356E+02 -.653E+02 0.844E+01   -.254E+00 0.578E-01 0.458E-01   -.234E-03 -.619E-03 0.130E-03
   0.936E+02 0.817E+02 0.143E+01   -.940E+02 -.809E+02 -.140E+01   0.314E+00 0.297E+00 0.172E-01   0.540E-03 0.207E-03 0.212E-03
   0.974E+00 -.521E+02 -.149E+02   -.531E+00 0.520E+02 0.144E+02   0.295E+00 -.736E-01 0.736E-01   -.105E-03 0.552E-03 0.372E-03
   -.341E+02 -.516E+02 -.453E+02   0.332E+02 0.519E+02 0.453E+02   0.467E-01 -.200E+00 -.160E+00   0.270E-04 -.835E-04 -.197E-03
   0.508E+01 0.210E+01 0.246E+02   -.568E+01 -.224E+01 -.244E+02   0.128E+00 0.480E+00 0.537E-02   -.859E-04 -.810E-04 -.110E-03
   0.195E+02 -.222E+02 0.705E+02   -.190E+02 0.226E+02 -.698E+02   -.175E+00 -.351E+00 0.710E-01   -.324E-03 -.203E-03 -.211E-04
   0.562E+01 0.403E+02 -.148E+02   -.484E+01 -.402E+02 0.147E+02   -.319E+00 0.207E-01 0.317E-01   0.388E-03 -.386E-03 -.119E-05
   -.906E+02 -.410E+02 -.148E+02   0.907E+02 0.414E+02 0.149E+02   -.191E+00 -.365E+00 -.907E-01   -.521E-03 -.329E-03 -.342E-03
   -.593E+02 -.727E+02 0.393E+02   0.597E+02 0.725E+02 -.390E+02   -.558E-02 -.157E+00 0.140E-01   0.131E-03 -.209E-03 -.970E-04
   0.629E+02 -.743E+02 0.692E+01   -.626E+02 0.735E+02 -.667E+01   0.779E-01 -.993E-01 -.377E-01   0.126E-03 0.492E-03 -.804E-04
   -.476E+01 -.725E+00 -.247E+02   0.431E+01 0.857E+00 0.244E+02   0.393E+00 0.220E-01 0.393E-01   -.210E-03 -.109E-03 0.118E-03
   0.128E+02 0.260E+01 -.228E+02   -.124E+02 -.300E+01 0.222E+02   -.348E+00 0.143E+00 -.685E-01   0.124E-03 -.138E-03 -.976E-04
   -.307E+02 0.106E+03 -.393E+02   0.306E+02 -.105E+03 0.390E+02   -.404E+00 0.282E+00 0.557E-02   -.119E-03 0.139E-03 0.312E-05
   -.559E+02 0.490E+02 -.303E+02   0.555E+02 -.488E+02 0.304E+02   -.190E-01 0.205E+00 -.166E+00   0.303E-03 0.799E-03 -.373E-03
   -.213E+02 -.156E+03 0.295E+02   0.211E+02 0.155E+03 -.294E+02   -.119E+00 -.216E+00 0.396E-01   -.359E-04 0.264E-03 -.357E-03
   -.200E+02 0.661E+02 0.109E+02   0.199E+02 -.659E+02 -.107E+02   -.152E+00 0.109E+00 0.250E-01   -.249E-03 -.809E-03 -.196E-03
   -.679E+02 -.515E+02 0.101E+02   0.677E+02 0.512E+02 -.102E+02   -.833E-01 -.948E-01 -.470E-01   -.262E-03 -.203E-03 0.267E-03
   0.101E+02 0.708E+01 0.288E+02   -.992E+01 -.715E+01 -.286E+02   -.153E+00 0.316E+00 -.146E-02   0.169E-03 -.245E-03 -.282E-03
   0.250E+02 0.129E+03 0.114E+02   -.247E+02 -.129E+03 -.113E+02   0.211E+00 0.243E+00 0.793E-01   -.122E-03 0.324E-03 0.136E-03
   0.123E+03 0.324E+01 0.101E+02   -.122E+03 -.306E+01 -.102E+02   0.235E+00 -.101E-02 -.741E-01   0.244E-03 0.219E-03 0.743E-04
   0.329E+02 -.429E+01 -.287E+02   -.331E+02 0.455E+01 0.286E+02   -.111E+00 -.243E-01 -.475E-01   0.246E-03 -.202E-03 0.283E-03
   -.949E+02 -.114E+03 -.240E+00   0.945E+02 0.114E+03 0.246E+00   -.164E+00 -.988E-01 -.112E-01   -.647E-03 -.410E-04 -.919E-04
   -.595E+01 0.117E+03 0.825E+01   0.610E+01 -.117E+03 -.811E+01   0.796E-01 0.231E+00 0.461E-01   0.756E-03 0.386E-03 0.131E-03
   0.927E+02 -.111E+03 0.308E+02   -.925E+02 0.111E+03 -.307E+02   0.554E-01 -.193E+00 0.657E-01   0.238E-03 0.386E-03 0.138E-03
 -----------------------------------------------------------------------------------------------
   0.334E+00 0.141E+00 -.154E+00   0.995E-12 -.853E-12 0.995E-13   -.334E+00 -.141E+00 0.154E+00   -.269E-03 -.236E-03 0.841E-04
 
 
 POSITION                                       TOTAL-FORCE (eV/Angst)
 -----------------------------------------------------------------------------------
      9.87000      9.87000      0.00000         0.227042      0.063903     -0.725122
      6.58000      3.29000      3.29000        -0.140091      0.240354     -0.181941
      9.87000      0.00000      3.29000         0.284950     -0.414029      0.509531
      0.00000      6.58000      3.29000        -0.525987     -0.287643     -0.065897
      6.58000      0.00000      3.29000        -1.011267     -0.264983      0.265209
      3.29000      6.58000      3.29000        -0.013024     -0.581354     -0.463511
      8.22500      8.22500      4.93500         0.243962     -0.044749     -0.159395
     11.51500      1.64500      4.93500         0.124671     -0.118062      0.333472
     11.51500      1.64500      1.64500         0.291894     -0.197962     -0.311075
      6.58000      6.58000      3.29000         0.335094     -0.670174     -0.183405
     11.51500      8.22500      1.64500        -0.076991     -0.666256     -0.234943
      0.00000      3.29000      0.00000         0.153595      0.319303      0.042428
      1.64500      1.64500      1.64500        -0.107341     -0.118325      0.104917
      1.64500      8.22500      4.93500         0.445920     -0.047789      0.263947
      9.87000      6.58000      0.00000         0.187993     -0.572680     -0.143082
      3.29000      9.87000      3.29000         0.108522      0.655275     -0.154484
      1.64500     11.51500      1.64500         0.141836      0.154989     -0.149627
      3.29000      6.58000      0.00000        -0.004715     -0.363744      0.313905
      0.00000      0.00000      0.00000         0.182652     -0.193187     -0.163910
      3.29000      0.00000      0.00000         0.365210      0.041319      0.015155
      4.93500      4.93500      1.64500        -0.220347      0.038306      0.021521
      1.64500      1.64500      4.93500        -0.232887     -0.263025     -0.096398
      6.58000      0.00000      0.00000        -0.484270     -0.116934     -0.176492
      0.00000      3.29000      3.29000        -0.158411      0.257915     -0.000032
      6.58000      9.87000      3.29000         0.008915      0.512910      0.146909
      1.64500      4.93500      1.64500        -0.178965      0.045709      0.006082
      4.93500     11.51500      1.64500        -0.087724     -0.166732     -0.142595
      9.87000      3.29000      0.00000        -0.107115      0.798816     -0.004756
      8.22500      4.93500      4.93500         0.565733      0.085426      0.136106
      4.93500      1.64500      4.93500        -0.053861     -0.215537      0.155782
      4.93500     11.51500      4.93500        -0.254694     -0.198576      0.155626
     11.51500     11.51500      4.93500         0.235414      0.477851      0.158881
      9.87000      0.00000      0.00000        -0.027478     -0.314889     -0.379215
      3.29000      3.29000      3.29000         0.181960     -0.314416     -0.196322
      8.22500      1.64500      4.93500         0.340397     -0.479163      0.706608
      1.64500     11.51500      4.93500         0.366495      0.319460      0.293629
      6.58000      3.29000      0.00000        -0.441044      0.266770      0.230838
     11.51500     11.51500      1.64500        -0.012239      0.923428     -0.329149
      8.22500      8.22500      1.64500         0.043375     -0.267662      0.221858
      4.93500      8.22500      1.64500        -0.650713      0.496926      0.087631
      8.22500     11.51500      1.64500        -0.106198      0.356304     -0.242488
      9.87000      3.29000      3.29000        -0.031225      1.146216      0.054501
      1.64500      8.22500      1.64500         0.737796     -0.138116     -0.392518
      4.93500      4.93500      4.93500        -0.817095      0.159424     -0.120865
      0.00000      9.87000      3.29000        -0.466269      0.337520      0.249418
      9.87000      9.87000      3.29000         0.382251      0.068031      0.770311
      3.29000      0.00000      3.29000         0.455039      0.054896     -0.011462
      1.64500      4.93500      4.93500        -0.048973     -0.025277     -0.030040
      3.29000      3.29000      0.00000         0.361111     -0.328292      0.320525
      6.58000      6.58000      0.00000         0.401305     -0.836668      0.209758
      0.00000      9.87000      0.00000        -0.060353      0.153417     -0.276060
      8.22500      1.64500      1.64500         0.097402     -0.265870     -0.679934
      6.58000      9.87000      0.00000        -0.457435      0.775039     -0.292023
      4.93500      8.22500      4.93500        -0.483552      0.385799     -0.094592
     11.51500      8.22500      4.93500        -0.244719     -0.710780      0.212242
      8.22500     11.51500      4.93500        -0.223862      0.299271      0.213519
      4.93500      1.64500      1.64500        -0.292628     -0.321159     -0.169299
     11.51500      4.93500      4.93500        -0.008836      0.246730      0.191077
      0.00000      0.00000      3.29000         0.448699     -0.272299      0.190847
      8.22500      4.93500      1.64500         0.768374      0.175237     -0.174635
     11.51500      4.93500      1.64500        -0.295355      0.233107     -0.196331
      0.00000      6.58000      0.00000        -0.642854     -0.369731     -0.005310
      3.29000      9.87000      0.00000         0.233719      0.713526      0.181588
      9.87000      6.58000      3.29000         0.247192     -0.657112      0.183086
 -----------------------------------------------------------------------------------
    total drift:                               -0.000144      0.000065     -0.000002


--------------------------------------------------------------------------------------------------------



  FREE ENERGIE OF THE ION-ELECTRON SYSTEM (eV)
  ---------------------------------------------------
  free  energy   TOTEN  =      -730.12211099 eV

  energy  without entropy=     -730.11019352  energy(sigma->0) =     -730.11615226
 


--------------------------------------------------------------------------------------------------------


    POTLOK:  cpu time      0.0721: real time      0.0856


--------------------------------------------------------------------------------------------------------


     LOOP+:  cpu time   1567.9944: real time   1575.0721
    4ORBIT:  cpu time      0.0000: real time      0.0000

 total amount of memory used by VASP MPI-rank0    90637. kBytes
=======================================================================

   base      :      30000. kBytes
   nonl-proj :      12216. kBytes
   fftplans  :       1504. kBytes
   grid      :       2835. kBytes
   one-center:         93. kBytes
   wavefun   :      43989. kBytes
 
  
  
 General timing and accounting informations for this job:
 ========================================================
  
                  Total CPU time used (sec):     1701.106
                            User time (sec):     1676.552
                          System time (sec):       24.554
                         Elapsed time (sec):     1709.906
  
                   Maximum memory used (kb):      150220.
                   Average memory used (kb):          N/A
  
                          Minor page faults:        15434
                          Major page faults:            0
                 Voluntary context switches:          261
