 vasp.6.3.1 04May22 (build Jul 26 2022 04:02:40) complex                        
  
 executed on             LinuxIFC date 2023.11.30  02:31:11
 running on   48 total cores
 distrk:  each k-point on   48 cores,    1 groups
 distr:  one band on NCORE=  12 cores,    4 groups


--------------------------------------------------------------------------------------------------------


 INCAR:
   ISTART = 0
   NWRITE = 2
   PREC = Accurate
   ENCUT = 250
   GGA = PE
   NSW = 0
   ISIF = 2
   ISYM = 2
   NBLOCK = 1
   KBLOCK = 1
   IBRION = -1
   NELM = 80
   EDIFF = 1E-08
   EDIFFG = -0.01
   ALGO = Normal
   LDIAG = .TRUE.
   LREAL = .FALSE.
   ISMEAR = 0
   SIGMA = 0.02
   ICHARG = 2
   LPLANE = .TRUE.
   NPAR = 4
   LSCALU = .FALSE.
   NSIM = 4
   LWAVE = .FALSE.
   LCHARG = .FALSE.
   ICORELEVEL = 1

 POTCAR:    PAW_PBE Nb_sv 25May2007               
 POTCAR:    PAW_PBE Mo_sv 02Feb2006               
 POTCAR:    PAW_PBE Ta_pv 07Sep2000               
 POTCAR:    PAW_PBE W_sv 04Sep2015                
 POTCAR:    PAW_PBE Nb_sv 25May2007               
   SHA256 =  0e8fc07c9fcd1164cf2ade22d0399fd28f85e91cd773dfa6cf24839a48c95e24 Nb_sv/POTCAR          
   COPYR  = (c) Copyright 25May2007 Georg Kresse                                                    
   COPYR  = This file is part of the software VASP. Any use, copying, and all other rights are regul
   COPYR  = If you do not have a valid VASP license, you may not use, copy or distribute this file. 
   VRHFIN =Nb: 4p5s4d                                                                               
   LEXCH  = PE                                                                                      
   EATOM  =  1555.1913 eV,  114.3033 Ry                                                             
                                                                                                    
   TITEL  = PAW_PBE Nb_sv 25May2007                                                                 
   LULTRA =        F    use ultrasoft PP ?                                                          
   IUNSCR =        1    unscreen: 0-lin 1-nonlin 2-no                                               
   RPACOR =    1.800    partial core radius                                                         
   POMASS =   92.910; ZVAL   =   13.000    mass and valenz                                          
   RCORE  =    2.400    outmost cutoff radius                                                       
   RWIGS  =    2.400; RWIGS  =    1.270    wigner-seitz radius (au A)                               
   ENMAX  =  293.235; ENMIN  =  219.927 eV                                                          
   ICORE  =        3    local potential                                                             
   LCOR   =        T    correct aug charges                                                         
   LPAW   =        T    paw PP                                                                      
   EAUG   =  455.659                                                                                
   DEXC   =    0.000                                                                                
   RMAX   =    2.456    core radius for proj-oper                                                   
   RAUG   =    1.300    factor for augmentation sphere                                              
   RDEP   =    2.451    radius for radial grids                                                     
   RDEPT  =    1.956    core radius for aug-charge                                                  
                                                                                                    
   Atomic configuration                                                                             
   11 entries                                                                                       
     n  l   j            E        occ.                                                              
     1  0  0.50    -18805.2457   2.0000                                                             
     2  0  0.50     -2630.2869   2.0000                                                             
     2  1  1.50     -2348.4046   6.0000                                                             
     3  0  0.50      -438.8757   2.0000                                                             
     3  1  1.50      -346.7588   6.0000                                                             
     3  2  2.50      -196.2560  10.0000                                                             
     4  0  0.50       -58.3859   2.0000                                                             
     5  0  0.50        -3.9816   1.0000                                                             
     4  1  1.50       -34.5141   6.0000                                                             
     4  2  2.50        -3.0408   4.0000                                                             
     4  3  2.50        -1.3606   0.0000                                                             
   Description                                                                                      
     l       E           TYP  RCUT    TYP  RCUT                                                     
     0    -58.3859094     23  2.200                                                                 
     0     -3.9816262     23  2.200                                                                 
     1    -34.5140738     23  2.200                                                                 
     1     13.6058260     23  2.200                                                                 
     2     -3.0408010     23  2.200                                                                 
     2     -0.1283038     23  2.200                                                                 
     3     -1.3605826     23  2.400                                                                 
  local pseudopotential read in
  partial core-charges read in
  partial kinetic energy density read in
  atomic valenz-charges read in
  non local Contribution for L=           0  read in
    real space projection operators read in
  non local Contribution for L=           0  read in
    real space projection operators read in
  non local Contribution for L=           1  read in
    real space projection operators read in
  non local Contribution for L=           1  read in
    real space projection operators read in
  non local Contribution for L=           2  read in
    real space projection operators read in
  non local Contribution for L=           2  read in
    real space projection operators read in
    PAW grid and wavefunctions read in
 
   number of l-projection  operators is LMAX  =           6
   number of lm-projection operators is LMMAX =          18
 
 POTCAR:    PAW_PBE Mo_sv 02Feb2006               
   SHA256 =  2731df97e41766cc617548c5a8267718fdef1f509ac6bafa01e745abea2bdfaa Mo_sv/POTCAR          
   COPYR  = (c) Copyright 02Feb2006 Georg Kresse                                                    
   COPYR  = This file is part of the software VASP. Any use, copying, and all other rights are regul
   COPYR  = If you do not have a valid VASP license, you may not use, copy or distribute this file. 
   VRHFIN =Mo: 4p5s4d                                                                               
   LEXCH  = PE                                                                                      
   EATOM  =  1862.2866 eV,  136.8742 Ry                                                             
                                                                                                    
   TITEL  = PAW_PBE Mo_sv 02Feb2006                                                                 
   LULTRA =        F    use ultrasoft PP ?                                                          
   IUNSCR =        1    unscreen: 0-lin 1-nonlin 2-no                                               
   RPACOR =    2.200    partial core radius                                                         
   POMASS =   95.940; ZVAL   =   14.000    mass and valenz                                          
   RCORE  =    2.500    outmost cutoff radius                                                       
   RWIGS  =    2.750; RWIGS  =    1.455    wigner-seitz radius (au A)                               
   ENMAX  =  242.676; ENMIN  =  182.007 eV                                                          
   ICORE  =        3    local potential                                                             
   LCOR   =        T    correct aug charges                                                         
   LPAW   =        T    paw PP                                                                      
   EAUG   =  446.014                                                                                
   DEXC   =    0.000                                                                                
   RMAX   =    2.563    core radius for proj-oper                                                   
   RAUG   =    1.300    factor for augmentation sphere                                              
   RDEP   =    2.641    radius for radial grids                                                     
   RDEPT  =    2.031    core radius for aug-charge                                                  
                                                                                                    
   Atomic configuration                                                                             
   11 entries                                                                                       
     n  l   j            E        occ.                                                              
     1  0  0.50    -19819.0341   2.0000                                                             
     2  0  0.50     -2799.0127   2.0000                                                             
     2  1  1.50     -2502.0276   6.0000                                                             
     3  0  0.50      -476.4449   2.0000                                                             
     3  1  1.50      -379.1496   6.0000                                                             
     3  2  2.50      -220.9367  10.0000                                                             
     4  0  0.50       -64.3378   2.0000                                                             
     5  0  0.50        -4.0862   1.0000                                                             
     4  1  1.50       -38.4773   6.0000                                                             
     4  2  2.50        -3.7535   5.0000                                                             
     4  3  2.50        -1.3606   0.0000                                                             
   Description                                                                                      
     l       E           TYP  RCUT    TYP  RCUT                                                     
     0    -64.3377829     23  2.100                                                                 
     0     -4.0861640     23  2.400                                                                 
     1    -38.4772993     23  2.100                                                                 
     1     13.6058260     23  2.100                                                                 
     2     -3.7534941     23  2.400                                                                 
     2     -5.1140767     23  2.400                                                                 
     3     -4.0817478     23  2.500                                                                 
  local pseudopotential read in
  partial core-charges read in
  partial kinetic energy density read in
  atomic valenz-charges read in
  non local Contribution for L=           0  read in
    real space projection operators read in
  non local Contribution for L=           0  read in
    real space projection operators read in
  non local Contribution for L=           1  read in
    real space projection operators read in
  non local Contribution for L=           1  read in
    real space projection operators read in
  non local Contribution for L=           2  read in
    real space projection operators read in
  non local Contribution for L=           2  read in
    real space projection operators read in
    PAW grid and wavefunctions read in
 
   number of l-projection  operators is LMAX  =           6
   number of lm-projection operators is LMMAX =          18
 
 POTCAR:    PAW_PBE Ta_pv 07Sep2000               
   SHA256 =  00d0a14a36c127416459414afb8617d9754996fffa60a2465888e660b20a452f Ta_pv/POTCAR          
   COPYR  = (c) Copyright 07Sep2000 Georg Kresse                                                    
   COPYR  = This file is part of the software VASP. Any use, copying, and all other rights are regul
   COPYR  = If you do not have a valid VASP license, you may not use, copy or distribute this file. 
   VRHFIN =Ta:  5p6s5d                                                                              
   LEXCH  = PE                                                                                      
   EATOM  =  1047.1984 eV,   76.9669 Ry                                                             
                                                                                                    
   TITEL  = PAW_PBE Ta_pv 07Sep2000                                                                 
   LULTRA =        F    use ultrasoft PP ?                                                          
   IUNSCR =        1    unscreen: 0-lin 1-nonlin 2-no                                               
   RPACOR =    2.330    partial core radius                                                         
   POMASS =  180.948; ZVAL   =   11.000    mass and valenz                                          
   RCORE  =    2.500    outmost cutoff radius                                                       
   RWIGS  =    2.840; RWIGS  =    1.503    wigner-seitz radius (au A)                               
   ENMAX  =  223.667; ENMIN  =  167.750 eV                                                          
   RCLOC  =    2.205    cutoff for local pot                                                        
   LCOR   =        T    correct aug charges                                                         
   LPAW   =        T    paw PP                                                                      
   EAUG   =  377.421                                                                                
   DEXC   =    0.000                                                                                
   RMAX   =    2.551    core radius for proj-oper                                                   
   RAUG   =    1.300    factor for augmentation sphere                                              
   RDEP   =    2.526    radius for radial grids                                                     
   RDEPT  =    2.132    core radius for aug-charge                                                  
                                                                                                    
   Atomic configuration                                                                             
   15 entries                                                                                       
     n  l   j            E        occ.                                                              
     1  0  0.50    -67341.2801   2.0000                                                             
     2  0  0.50    -11566.9369   2.0000                                                             
     2  1  1.50    -10134.1175   6.0000                                                             
     3  0  0.50     -2648.5614   2.0000                                                             
     3  1  1.50     -2222.6006   6.0000                                                             
     3  2  2.50     -1726.3114  10.0000                                                             
     4  0  0.50      -538.6957   2.0000                                                             
     4  1  1.50      -399.0125   6.0000                                                             
     4  2  2.50      -220.3955  10.0000                                                             
     4  3  3.50       -23.0371  14.0000                                                             
     5  0  0.50       -71.2900   2.0000                                                             
     5  1  1.50       -37.8224   6.0000                                                             
     5  2  2.50        -2.6455   4.0000                                                             
     6  0  0.50        -4.9623   1.0000                                                             
     5  3  2.50        -1.3606   0.0000                                                             
   Description                                                                                      
     l       E           TYP  RCUT    TYP  RCUT                                                     
     1    -37.8224449     23  2.500                                                                 
     1      1.3605826     23  2.500                                                                 
     2     -2.6454718     23  2.500                                                                 
     2     -0.6258570     23  2.500                                                                 
     0     -4.9622674     23  2.500                                                                 
     0      4.7531427     23  2.500                                                                 
  local pseudopotential read in
  partial core-charges read in
  partial kinetic energy density read in
  atomic valenz-charges read in
  non local Contribution for L=           1  read in
    real space projection operators read in
  non local Contribution for L=           1  read in
    real space projection operators read in
  non local Contribution for L=           2  read in
    real space projection operators read in
  non local Contribution for L=           2  read in
    real space projection operators read in
  non local Contribution for L=           0  read in
    real space projection operators read in
  non local Contribution for L=           0  read in
    real space projection operators read in
    PAW grid and wavefunctions read in
 
   number of l-projection  operators is LMAX  =           6
   number of lm-projection operators is LMMAX =          18
 
 POTCAR:    PAW_PBE W_sv 04Sep2015                
   SHA256 =  931c2d770f65867ef30f3db3421922900fc0890ebac5c3e12f63b6a2064023d7 W_sv/POTCAR           
   COPYR  = (c) Copyright 04Sep2015 Georg Kresse                                                    
   COPYR  = This file is part of the software VASP. Any use, copying, and all other rights are regul
   COPYR  = If you do not have a valid VASP license, you may not use, copy or distribute this file. 
   VRHFIN =W : 5p6s5d                                                                               
   LEXCH  = PE                                                                                      
   EATOM  =  1865.5791 eV,  137.1162 Ry                                                             
                                                                                                    
   TITEL  = PAW_PBE W_sv 04Sep2015                                                                  
   LULTRA =        F    use ultrasoft PP ?                                                          
   IUNSCR =        1    unscreen: 0-lin 1-nonlin 2-no                                               
   RPACOR =    2.330    partial core radius                                                         
   POMASS =  183.850; ZVAL   =   14.000    mass and valenz                                          
   RCORE  =    2.500    outmost cutoff radius                                                       
   RWIGS  =    2.750; RWIGS  =    1.455    wigner-seitz radius (au A)                               
   ENMAX  =  223.057; ENMIN  =  167.293 eV                                                          
   ICORE  =        3    local potential                                                             
   LCOR   =        T    correct aug charges                                                         
   LPAW   =        T    paw PP                                                                      
   EAUG   =  373.438                                                                                
   DEXC   =    0.000                                                                                
   RMAX   =    2.565    core radius for proj-oper                                                   
   RAUG   =    1.300    factor for augmentation sphere                                              
   RDEP   =    2.539    radius for radial grids                                                     
   RDEPT  =    2.126    core radius for aug-charge                                                  
                                                                                                    
   Atomic configuration                                                                             
   15 entries                                                                                       
     n  l   j            E        occ.                                                              
     1  0  0.50    -69465.5834   2.0000                                                             
     2  0  0.50    -11986.2640   2.0000                                                             
     2  1  1.50    -10479.8613   6.0000                                                             
     3  0  0.50     -2759.0756   2.0000                                                             
     3  1  1.50     -2313.1855   6.0000                                                             
     3  2  2.50     -1801.1183  10.0000                                                             
     4  0  0.50      -567.6789   2.0000                                                             
     4  1  1.50      -421.4692   6.0000                                                             
     4  2  2.50      -236.3471  10.0000                                                             
     4  3  3.50       -31.2665  14.0000                                                             
     5  0  0.50       -77.1084   2.0000                                                             
     6  0  0.50        -5.1438   1.0000                                                             
     5  1  1.50       -41.3856   6.0000                                                             
     5  2  2.50        -3.3185   5.0000                                                             
     5  3  2.50        -1.3606   0.0000                                                             
   Description                                                                                      
     l       E           TYP  RCUT    TYP  RCUT                                                     
     0    -77.1084470     23  2.100                                                                 
     0     -5.1437956     23  2.300                                                                 
     1    -41.3855615     23  2.500                                                                 
     1     -2.7211652     23  2.500                                                                 
     2     -3.3185025     23  2.500                                                                 
     2     -1.5965151     23  2.500                                                                 
     3     -1.3605826     23  2.500                                                                 
  local pseudopotential read in
  partial core-charges read in
  partial kinetic energy density read in
  kinetic energy density of atom read in
  atomic valenz-charges read in
  non local Contribution for L=           0  read in
    real space projection operators read in
  non local Contribution for L=           0  read in
    real space projection operators read in
  non local Contribution for L=           1  read in
    real space projection operators read in
  non local Contribution for L=           1  read in
    real space projection operators read in
  non local Contribution for L=           2  read in
    real space projection operators read in
  non local Contribution for L=           2  read in
    real space projection operators read in
    PAW grid and wavefunctions read in
 
   number of l-projection  operators is LMAX  =           6
   number of lm-projection operators is LMMAX =          18
 
  PAW_PBE Nb_sv 25May2007               :
 energy of atom  1       EATOM=-1555.1913
 kinetic energy error for atom=    0.2155 (will be added to EATOM!!)
  PAW_PBE Mo_sv 02Feb2006               :
 energy of atom  2       EATOM=-1862.2866
 kinetic energy error for atom=    0.1102 (will be added to EATOM!!)
  PAW_PBE Ta_pv 07Sep2000               :
 energy of atom  3       EATOM=-1047.1984
 kinetic energy error for atom=    0.0394 (will be added to EATOM!!)
  PAW_PBE W_sv 04Sep2015                :
 energy of atom  4       EATOM=-1865.5791
 kinetic energy error for atom=    0.0589 (will be added to EATOM!!)
 
 
 POSCAR: Nb-Mo-Ta-W alloy
  positions in direct lattice
  No initial velocities read in
 exchange correlation table for  LEXCH =        8
   RHO(1)=    0.500       N(1)  =     2000
   RHO(2)=  100.500       N(2)  =     4000
 


--------------------------------------------------------------------------------------------------------


 ion  position               nearest neighbor table
   1  0.000  0.000  0.000-   2 2.85   4 2.85   7 2.85  10 2.85  11 2.85  13 2.85  14 2.85  16 2.85

   2  0.750  0.750  0.750-   1 2.85   3 2.85   5 2.85   6 2.85   8 2.85   9 2.85  12 2.85  15 2.85

   3  0.000  0.500  0.000-   2 2.85   4 2.85   7 2.85  10 2.85  11 2.85  13 2.85  14 2.85  16 2.85

   4  0.750  0.750  0.250-   1 2.85   3 2.85   5 2.85   6 2.85   8 2.85   9 2.85  12 2.85  15 2.85

   5  0.000  0.000  0.500-   2 2.85   4 2.85   7 2.85  10 2.85  11 2.85  13 2.85  14 2.85  16 2.85
                            12 3.29  12 3.29
   6  0.500  0.500  0.000-   2 2.85   4 2.85   7 2.85  10 2.85  11 2.85  13 2.85  14 2.85  16 2.85
                             9 3.29   8 3.29   9 3.29   8 3.29
   7  0.750  0.250  0.250-   1 2.85   3 2.85   5 2.85   6 2.85   8 2.85   9 2.85  12 2.85  15 2.85
                            14 3.29  10 3.29  14 3.29  10 3.29
   8  0.500  0.000  0.000-   2 2.85   4 2.85   7 2.85  10 2.85  11 2.85  13 2.85  14 2.85  16 2.85
                            12 3.29   6 3.29  12 3.29   6 3.29
   9  0.500  0.500  0.500-   2 2.85   4 2.85   7 2.85  10 2.85  11 2.85  13 2.85  14 2.85  16 2.85
                            12 3.29  15 3.29   6 3.29   6 3.29  12 3.29  15 3.29
  10  0.250  0.250  0.250-   1 2.85   3 2.85   5 2.85   6 2.85   8 2.85   9 2.85  12 2.85  15 2.85
                             7 3.29  11 3.29  16 3.29  11 3.29  16 3.29   7 3.29
  11  0.250  0.250  0.750-   1 2.85   3 2.85   5 2.85   6 2.85   8 2.85   9 2.85  12 2.85  15 2.85
                            13 3.29  14 3.29  10 3.29  10 3.29  13 3.29  14 3.29
  12  0.500  0.000  0.500-   2 2.85   4 2.85   7 2.85  10 2.85  11 2.85  13 2.85  14 2.85  16 2.85
                             9 3.29   5 3.29   8 3.29   8 3.29   9 3.29   5 3.29
  13  0.250  0.750  0.750-   1 2.85   3 2.85   5 2.85   6 2.85   8 2.85   9 2.85  12 2.85  15 2.85
                            11 3.29  16 3.29  16 3.29  11 3.29
  14  0.750  0.250  0.750-   1 2.85   3 2.85   5 2.85   6 2.85   8 2.85   9 2.85  12 2.85  15 2.85
                             7 3.29  11 3.29   7 3.29  11 3.29
  15  0.000  0.500  0.500-   2 2.85   4 2.85   7 2.85  10 2.85  11 2.85  13 2.85  14 2.85  16 2.85
                             9 3.29   9 3.29
  16  0.250  0.750  0.250-   1 2.85   3 2.85   5 2.85   6 2.85   8 2.85   9 2.85  12 2.85  15 2.85
                            13 3.29  10 3.29  13 3.29  10 3.29
 
  LATTYP: Found a simple cubic cell.
 ALAT       =     6.5800000000
  
  Lattice vectors:
  
 A1 = (   6.5800000000,   0.0000000000,   0.0000000000)
 A2 = (   0.0000000000,   6.5800000000,   0.0000000000)
 A3 = (   0.0000000000,   0.0000000000,   6.5800000000)


Analysis of symmetry for initial positions (statically):
=====================================================================
 Subroutine PRICEL returns:
 Original cell was already a primitive cell.
 

 Routine SETGRP: Setting up the symmetry group for a 
 simple cubic supercell.


 Subroutine GETGRP returns: Found  1 space group operations
 (whereof  1 operations were pure point group operations)
 out of a pool of 48 trial point group operations.


The static configuration has the point symmetry C_1 .


Analysis of symmetry for dynamics (positions and initial velocities):
=====================================================================
 Subroutine PRICEL returns:
 Original cell was already a primitive cell.
 

 Routine SETGRP: Setting up the symmetry group for a 
 simple cubic supercell.


 Subroutine GETGRP returns: Found  1 space group operations
 (whereof  1 operations were pure point group operations)
 out of a pool of 48 trial point group operations.


The dynamic configuration has the point symmetry C_1 .


 Subroutine INISYM returns: Found  1 space group operations
 (whereof  1 operations are pure point group operations),
 and found     1 'primitive' translations


----------------------------------------------------------------------------------------

                                     Primitive cell                                     

  volume of cell :     284.8903

  direct lattice vectors                    reciprocal lattice vectors
     6.580000000  0.000000000  0.000000000     0.151975684  0.000000000  0.000000000
     0.000000000  6.580000000  0.000000000     0.000000000  0.151975684  0.000000000
     0.000000000  0.000000000  6.580000000     0.000000000  0.000000000  0.151975684

  length of vectors
     6.580000000  6.580000000  6.580000000     0.151975684  0.151975684  0.151975684

  position of ions in fractional coordinates (direct lattice)
     0.000000000  0.000000000  0.000000000
     0.750000000  0.750000000  0.750000000
     0.000000000  0.500000000  0.000000000
     0.750000000  0.750000000  0.250000000
     0.000000000  0.000000000  0.500000000
     0.500000000  0.500000000  0.000000000
     0.750000000  0.250000000  0.250000000
     0.500000000  0.000000000  0.000000000
     0.500000000  0.500000000  0.500000000
     0.250000000  0.250000000  0.250000000
     0.250000000  0.250000000  0.750000000
     0.500000000  0.000000000  0.500000000
     0.250000000  0.750000000  0.750000000
     0.750000000  0.250000000  0.750000000
     0.000000000  0.500000000  0.500000000
     0.250000000  0.750000000  0.250000000

  ion indices of the primitive-cell ions
   primitive index   ion index
                 1           1
                 2           2
                 3           3
                 4           4
                 5           5
                 6           6
                 7           7
                 8           8
                 9           9
                10          10
                11          11
                12          12
                13          13
                14          14
                15          15
                16          16

----------------------------------------------------------------------------------------

 
 
 KPOINTS: K-Spacing Value to Generate K-Mesh: 0.03

Automatic generation of k-mesh.
 Grid dimensions read from file:
 generate k-points for:    5    5    5

 Generating k-lattice:

  Cartesian coordinates                     Fractional coordinates (reciprocal lattice)
     0.030395137  0.000000000  0.000000000     0.200000000  0.000000000  0.000000000
     0.000000000  0.030395137  0.000000000     0.000000000  0.200000000  0.000000000
     0.000000000  0.000000000  0.030395137     0.000000000  0.000000000  0.200000000

  Length of vectors
     0.030395137  0.030395137  0.030395137

  Shift w.r.t. Gamma in fractional coordinates (k-lattice)
     0.000000000  0.000000000  0.000000000

 
 Subroutine IBZKPT returns following result:
 ===========================================
 
 Found     63 irreducible k-points:
 
 Following reciprocal coordinates:
            Coordinates               Weight
  0.000000  0.000000  0.000000      1.000000
  0.200000  0.000000  0.000000      2.000000
  0.000000  0.200000  0.000000      2.000000
  0.000000  0.000000  0.200000      2.000000
  0.400000  0.000000  0.000000      2.000000
  0.000000  0.400000  0.000000      2.000000
  0.000000  0.000000  0.400000      2.000000
  0.200000  0.200000  0.000000      2.000000
  0.000000  0.200000  0.200000      2.000000
  0.200000  0.000000  0.200000      2.000000
 -0.200000  0.200000  0.000000      2.000000
 -0.200000  0.000000  0.200000      2.000000
  0.000000 -0.200000  0.200000      2.000000
  0.400000  0.200000  0.000000      2.000000
  0.000000  0.400000  0.200000      2.000000
  0.200000  0.000000  0.400000      2.000000
 -0.200000  0.400000  0.000000      2.000000
 -0.400000  0.000000  0.200000      2.000000
  0.000000  0.200000  0.400000      2.000000
  0.000000 -0.400000  0.200000      2.000000
 -0.200000  0.000000  0.400000      2.000000
  0.400000  0.000000  0.200000      2.000000
  0.000000 -0.200000  0.400000      2.000000
  0.400000 -0.200000  0.000000      2.000000
  0.200000  0.400000  0.000000      2.000000
  0.400000  0.400000  0.000000      2.000000
  0.000000  0.400000  0.400000      2.000000
  0.400000  0.000000  0.400000      2.000000
 -0.400000  0.400000  0.000000      2.000000
 -0.400000  0.000000  0.400000      2.000000
  0.000000 -0.400000  0.400000      2.000000
  0.200000  0.200000  0.200000      2.000000
 -0.200000  0.200000  0.200000      2.000000
 -0.200000 -0.200000  0.200000      2.000000
  0.200000 -0.200000  0.200000      2.000000
  0.400000  0.200000  0.200000      2.000000
  0.200000  0.400000  0.200000      2.000000
  0.200000  0.200000  0.400000      2.000000
 -0.200000  0.400000  0.200000      2.000000
 -0.400000  0.200000  0.200000      2.000000
 -0.200000  0.200000  0.400000      2.000000
 -0.400000 -0.200000  0.200000      2.000000
 -0.200000 -0.400000  0.200000      2.000000
 -0.200000 -0.200000  0.400000      2.000000
  0.200000 -0.400000  0.200000      2.000000
  0.400000 -0.200000  0.200000      2.000000
  0.200000 -0.200000  0.400000      2.000000
  0.400000  0.400000  0.200000      2.000000
  0.200000  0.400000  0.400000      2.000000
  0.400000  0.200000  0.400000      2.000000
 -0.400000  0.400000  0.200000      2.000000
 -0.400000  0.200000  0.400000      2.000000
 -0.200000  0.400000  0.400000      2.000000
 -0.400000 -0.400000  0.200000      2.000000
 -0.200000 -0.400000  0.400000      2.000000
 -0.400000 -0.200000  0.400000      2.000000
  0.400000 -0.400000  0.200000      2.000000
  0.400000 -0.200000  0.400000      2.000000
  0.200000 -0.400000  0.400000      2.000000
  0.400000  0.400000  0.400000      2.000000
 -0.400000  0.400000  0.400000      2.000000
 -0.400000 -0.400000  0.400000      2.000000
  0.400000 -0.400000  0.400000      2.000000
 
 Following cartesian coordinates:
            Coordinates               Weight
  0.000000  0.000000  0.000000      1.000000
  0.030395  0.000000  0.000000      2.000000
  0.000000  0.030395  0.000000      2.000000
  0.000000  0.000000  0.030395      2.000000
  0.060790  0.000000  0.000000      2.000000
  0.000000  0.060790  0.000000      2.000000
  0.000000  0.000000  0.060790      2.000000
  0.030395  0.030395  0.000000      2.000000
  0.000000  0.030395  0.030395      2.000000
  0.030395  0.000000  0.030395      2.000000
 -0.030395  0.030395  0.000000      2.000000
 -0.030395  0.000000  0.030395      2.000000
  0.000000 -0.030395  0.030395      2.000000
  0.060790  0.030395  0.000000      2.000000
  0.000000  0.060790  0.030395      2.000000
  0.030395  0.000000  0.060790      2.000000
 -0.030395  0.060790  0.000000      2.000000
 -0.060790  0.000000  0.030395      2.000000
  0.000000  0.030395  0.060790      2.000000
  0.000000 -0.060790  0.030395      2.000000
 -0.030395  0.000000  0.060790      2.000000
  0.060790  0.000000  0.030395      2.000000
  0.000000 -0.030395  0.060790      2.000000
  0.060790 -0.030395  0.000000      2.000000
  0.030395  0.060790  0.000000      2.000000
  0.060790  0.060790  0.000000      2.000000
  0.000000  0.060790  0.060790      2.000000
  0.060790  0.000000  0.060790      2.000000
 -0.060790  0.060790  0.000000      2.000000
 -0.060790  0.000000  0.060790      2.000000
  0.000000 -0.060790  0.060790      2.000000
  0.030395  0.030395  0.030395      2.000000
 -0.030395  0.030395  0.030395      2.000000
 -0.030395 -0.030395  0.030395      2.000000
  0.030395 -0.030395  0.030395      2.000000
  0.060790  0.030395  0.030395      2.000000
  0.030395  0.060790  0.030395      2.000000
  0.030395  0.030395  0.060790      2.000000
 -0.030395  0.060790  0.030395      2.000000
 -0.060790  0.030395  0.030395      2.000000
 -0.030395  0.030395  0.060790      2.000000
 -0.060790 -0.030395  0.030395      2.000000
 -0.030395 -0.060790  0.030395      2.000000
 -0.030395 -0.030395  0.060790      2.000000
  0.030395 -0.060790  0.030395      2.000000
  0.060790 -0.030395  0.030395      2.000000
  0.030395 -0.030395  0.060790      2.000000
  0.060790  0.060790  0.030395      2.000000
  0.030395  0.060790  0.060790      2.000000
  0.060790  0.030395  0.060790      2.000000
 -0.060790  0.060790  0.030395      2.000000
 -0.060790  0.030395  0.060790      2.000000
 -0.030395  0.060790  0.060790      2.000000
 -0.060790 -0.060790  0.030395      2.000000
 -0.030395 -0.060790  0.060790      2.000000
 -0.060790 -0.030395  0.060790      2.000000
  0.060790 -0.060790  0.030395      2.000000
  0.060790 -0.030395  0.060790      2.000000
  0.030395 -0.060790  0.060790      2.000000
  0.060790  0.060790  0.060790      2.000000
 -0.060790  0.060790  0.060790      2.000000
 -0.060790 -0.060790  0.060790      2.000000
  0.060790 -0.060790  0.060790      2.000000
 


--------------------------------------------------------------------------------------------------------




 Dimension of arrays:
   k-points           NKPTS =     63   k-points in BZ     NKDIM =     63   number of bands    NBANDS=    128
   number of dos      NEDOS =    301   number of ions     NIONS =     16
   non local maximal  LDIM  =      6   non local SUM 2l+1 LMDIM =     18
   total plane-waves  NPLWV =  46656
   max r-space proj   IRMAX =      1   max aug-charges    IRDMAX=   9546
   dimension x,y,z NGX =    36 NGY =   36 NGZ =   36
   dimension x,y,z NGXF=    72 NGYF=   72 NGZF=   72
   support grid    NGXF=    72 NGYF=   72 NGZF=   72
   ions per type =               5   4   3   4
   NGX,Y,Z   is equivalent  to a cutoff of   9.10,  9.10,  9.10 a.u.
   NGXF,Y,Z  is equivalent  to a cutoff of  18.19, 18.19, 18.19 a.u.

 SYSTEM =  unknown system                          
 POSCAR =  Nb-Mo-Ta-W alloy                        

 Startparameter for this run:
   NWRITE =      2    write-flag & timer
   PREC   = accura    normal or accurate (medium, high low for compatibility)
   ISTART =      0    job   : 0-new  1-cont  2-samecut
   ICHARG =      2    charge: 1-file 2-atom 10-const
   ISPIN  =      1    spin polarized calculation?
   LNONCOLLINEAR =      F non collinear calculations
   LSORBIT =      F    spin-orbit coupling
   INIWAV =      1    electr: 0-lowe 1-rand  2-diag
   LASPH  =      F    aspherical Exc in radial PAW
 Electronic Relaxation 1
   ENCUT  =  250.0 eV  18.37 Ry    4.29 a.u.   8.48  8.48  8.48*2*pi/ulx,y,z
   ENINI  =  250.0     initial cutoff
   ENAUG  =  455.7 eV  augmentation charge cutoff
   NELM   =     80;   NELMIN=  2; NELMDL= -5     # of ELM steps 
   EDIFF  = 0.1E-07   stopping-criterion for ELM
   LREAL  =      F    real-space projection
   NLSPLINE    = F    spline interpolate recip. space projectors
   LCOMPAT=      F    compatible to vasp.4.4
   GGA_COMPAT  = T    GGA compatible to vasp.4.4-vasp.4.6
   LMAXPAW     = -100 max onsite density
   LMAXMIX     =    2 max onsite mixed and CHGCAR
   VOSKOWN=      0    Vosko Wilk Nusair interpolation
   ROPT   =    0.00000   0.00000   0.00000   0.00000
 Ionic relaxation
   EDIFFG = -.1E-01   stopping-criterion for IOM
   NSW    =      0    number of steps for IOM
   NBLOCK =      1;   KBLOCK =      1    inner block; outer block 
   IBRION =     -1    ionic relax: 0-MD 1-quasi-New 2-CG
   NFREE  =      0    steps in history (QN), initial steepest desc. (CG)
   ISIF   =      2    stress and relaxation
   IWAVPR =     10    prediction:  0-non 1-charg 2-wave 3-comb
   ISYM   =      2    0-nonsym 1-usesym 2-fastsym
   LCORR  =      T    Harris-Foulkes like correction to forces

   POTIM  = 0.5000    time-step for ionic-motion
   TEIN   =    0.0    initial temperature
   TEBEG  =    0.0;   TEEND  =   0.0 temperature during run
   SMASS  =  -3.00    Nose mass-parameter (am)
   estimated Nose-frequenzy (Omega)   =  0.10E-29 period in steps = 0.13E+47 mass=  -0.989E-27a.u.
   SCALEE = 1.0000    scale energy and forces
   NPACO  =    256;   APACO  = 10.0  distance and # of slots for P.C.
   PSTRESS=    0.0 pullay stress

  Mass of Ions in am
   POMASS =  92.91 95.94180.95183.85
  Ionic Valenz
   ZVAL   =  13.00 14.00 11.00 14.00
  Atomic Wigner-Seitz radii
   RWIGS  =  -1.00 -1.00 -1.00 -1.00
  virtual crystal weights 
   VCA    =   1.00  1.00  1.00  1.00
   NELECT =     210.0000    total number of electrons
   NUPDOWN=      -1.0000    fix difference up-down

 DOS related values:
   EMIN   =  10.00;   EMAX   =-10.00  energy-range for DOS
   EFERMI =   0.00
   ISMEAR =     0;   SIGMA  =   0.02  broadening in eV -4-tet -1-fermi 0-gaus

 Electronic relaxation 2 (details)
   IALGO  =     38    algorithm
   LDIAG  =      T    sub-space diagonalisation (order eigenvalues)
   LSUBROT=      F    optimize rotation matrix (better conditioning)
   TURBO    =      0    0=normal 1=particle mesh
   IRESTART =      0    0=no restart 2=restart with 2 vectors
   NREBOOT  =      0    no. of reboots
   NMIN     =      0    reboot dimension
   EREF     =   0.00    reference energy to select bands
   IMIX   =      4    mixing-type and parameters
     AMIX     =   0.40;   BMIX     =  1.00
     AMIX_MAG =   1.60;   BMIX_MAG =  1.00
     AMIN     =   0.10
     WC   =   100.;   INIMIX=   1;  MIXPRE=   1;  MAXMIX= -45

 Intra band minimization:
   WEIMIN = 0.0000     energy-eigenvalue tresh-hold
   EBREAK =  0.20E-10  absolut break condition
   DEPER  =   0.30     relativ break condition  

   TIME   =   0.40     timestep for ELM

  volume/ion in A,a.u.               =      17.81       120.16
  Fermi-wavevector in a.u.,A,eV,Ry     =   1.478843  2.794608 29.755619  2.186976
  Thomas-Fermi vector in A             =   2.593074
 
 Write flags
   LWAVE        =      F    write WAVECAR
   LDOWNSAMPLE  =      F    k-point downsampling of WAVECAR
   LCHARG       =      F    write CHGCAR
   LVTOT        =      F    write LOCPOT, total local potential
   LVHAR        =      F    write LOCPOT, Hartree potential only
   LELF         =      F    write electronic localiz. function (ELF)
   LORBIT       =      0    0 simple, 1 ext, 2 COOP (PROOUT), +10 PAW based schemes


 Dipole corrections
   LMONO  =      F    monopole corrections only (constant potential shift)
   LDIPOL =      F    correct potential (dipole corrections)
   IDIPOL =      0    1-x, 2-y, 3-z, 4-all directions 
   EPSILON=  1.0000000 bulk dielectric constant

 Core level calculations are selected ICORELEVEL =  1
 Exchange correlation treatment:
   GGA     =    PE    GGA type
   LEXCH   =     8    internal setting for exchange type
   LIBXC   =     F    Libxc                    
   VOSKOWN =     0    Vosko Wilk Nusair interpolation
   LHFCALC =     F    Hartree Fock is set to
   LHFONE  =     F    Hartree Fock one center treatment
   AEXX    =    0.0000 exact exchange contribution

 Linear response parameters
   LEPSILON=     F    determine dielectric tensor
   LRPA    =     F    only Hartree local field effects (RPA)
   LNABLA  =     F    use nabla operator in PAW spheres
   LVEL    =     F    velocity operator in full k-point grid
   CSHIFT  =0.1000    complex shift for real part using Kramers Kronig
   OMEGAMAX=  -1.0    maximum frequency
   DEG_THRESHOLD= 0.2000000E-02 threshold for treating states as degnerate
   RTIME   =   -0.100 relaxation time in fs
  (WPLASMAI=    0.000 imaginary part of plasma frequency in eV, 0.658/RTIME)
   DFIELD  = 0.0000000 0.0000000 0.0000000 field for delta impulse in time
 
  Optional k-point grid parameters
   LKPOINTS_OPT  =     F    use optional k-point grid
   KPOINTS_OPT_MODE=     1    mode for optional k-point grid
 
 Orbital magnetization related:
   ORBITALMAG=     F  switch on orbital magnetization
   LCHIMAG   =     F  perturbation theory with respect to B field
   DQ        =  0.001000  dq finite difference perturbation B field
   LLRAUG    =     F  two centre corrections for induced B field



--------------------------------------------------------------------------------------------------------


 Static calculation
 charge density and potential will be updated during run
 non-spin polarized calculation
 Variant of blocked Davidson
 Davidson routine will perform the subspace rotation
 perform sub-space diagonalisation
    after iterative eigenvector-optimisation
 modified Broyden-mixing scheme, WC =      100.0
 initial mixing is a Kerker type mixing with AMIX =  0.4000 and BMIX =      1.0000
 Hartree-type preconditioning will be used
 using additional bands           23
 reciprocal scheme for non local part
 use partial core corrections
 calculate Harris-corrections to forces 
   (improved forces if not selfconsistent)
 use gradient corrections 
 use of overlap-Matrix (Vanderbilt PP)
 Gauss-broadening in eV      SIGMA  =   0.02


--------------------------------------------------------------------------------------------------------


  energy-cutoff  :      250.00
  volume of cell :      284.89
      direct lattice vectors                 reciprocal lattice vectors
     6.580000000  0.000000000  0.000000000     0.151975684  0.000000000  0.000000000
     0.000000000  6.580000000  0.000000000     0.000000000  0.151975684  0.000000000
     0.000000000  0.000000000  6.580000000     0.000000000  0.000000000  0.151975684

  length of vectors
     6.580000000  6.580000000  6.580000000     0.151975684  0.151975684  0.151975684


 
 k-points in units of 2pi/SCALE and weight: K-Spacing Value to Generate K-Mesh: 0.03
   0.00000000  0.00000000  0.00000000       0.008
   0.03039514  0.00000000  0.00000000       0.016
   0.00000000  0.03039514  0.00000000       0.016
   0.00000000  0.00000000  0.03039514       0.016
   0.06079027  0.00000000  0.00000000       0.016
   0.00000000  0.06079027  0.00000000       0.016
   0.00000000  0.00000000  0.06079027       0.016
   0.03039514  0.03039514  0.00000000       0.016
   0.00000000  0.03039514  0.03039514       0.016
   0.03039514  0.00000000  0.03039514       0.016
  -0.03039514  0.03039514  0.00000000       0.016
  -0.03039514  0.00000000  0.03039514       0.016
   0.00000000 -0.03039514  0.03039514       0.016
   0.06079027  0.03039514  0.00000000       0.016
   0.00000000  0.06079027  0.03039514       0.016
   0.03039514  0.00000000  0.06079027       0.016
  -0.03039514  0.06079027  0.00000000       0.016
  -0.06079027  0.00000000  0.03039514       0.016
   0.00000000  0.03039514  0.06079027       0.016
   0.00000000 -0.06079027  0.03039514       0.016
  -0.03039514  0.00000000  0.06079027       0.016
   0.06079027  0.00000000  0.03039514       0.016
   0.00000000 -0.03039514  0.06079027       0.016
   0.06079027 -0.03039514  0.00000000       0.016
   0.03039514  0.06079027  0.00000000       0.016
   0.06079027  0.06079027  0.00000000       0.016
   0.00000000  0.06079027  0.06079027       0.016
   0.06079027  0.00000000  0.06079027       0.016
  -0.06079027  0.06079027  0.00000000       0.016
  -0.06079027  0.00000000  0.06079027       0.016
   0.00000000 -0.06079027  0.06079027       0.016
   0.03039514  0.03039514  0.03039514       0.016
  -0.03039514  0.03039514  0.03039514       0.016
  -0.03039514 -0.03039514  0.03039514       0.016
   0.03039514 -0.03039514  0.03039514       0.016
   0.06079027  0.03039514  0.03039514       0.016
   0.03039514  0.06079027  0.03039514       0.016
   0.03039514  0.03039514  0.06079027       0.016
  -0.03039514  0.06079027  0.03039514       0.016
  -0.06079027  0.03039514  0.03039514       0.016
  -0.03039514  0.03039514  0.06079027       0.016
  -0.06079027 -0.03039514  0.03039514       0.016
  -0.03039514 -0.06079027  0.03039514       0.016
  -0.03039514 -0.03039514  0.06079027       0.016
   0.03039514 -0.06079027  0.03039514       0.016
   0.06079027 -0.03039514  0.03039514       0.016
   0.03039514 -0.03039514  0.06079027       0.016
   0.06079027  0.06079027  0.03039514       0.016
   0.03039514  0.06079027  0.06079027       0.016
   0.06079027  0.03039514  0.06079027       0.016
  -0.06079027  0.06079027  0.03039514       0.016
  -0.06079027  0.03039514  0.06079027       0.016
  -0.03039514  0.06079027  0.06079027       0.016
  -0.06079027 -0.06079027  0.03039514       0.016
  -0.03039514 -0.06079027  0.06079027       0.016
  -0.06079027 -0.03039514  0.06079027       0.016
   0.06079027 -0.06079027  0.03039514       0.016
   0.06079027 -0.03039514  0.06079027       0.016
   0.03039514 -0.06079027  0.06079027       0.016
   0.06079027  0.06079027  0.06079027       0.016
  -0.06079027  0.06079027  0.06079027       0.016
  -0.06079027 -0.06079027  0.06079027       0.016
   0.06079027 -0.06079027  0.06079027       0.016
 
 k-points in reciprocal lattice and weights: K-Spacing Value to Generate K-Mesh: 0.03
   0.00000000  0.00000000  0.00000000       0.008
   0.20000000  0.00000000  0.00000000       0.016
   0.00000000  0.20000000  0.00000000       0.016
   0.00000000  0.00000000  0.20000000       0.016
   0.40000000  0.00000000  0.00000000       0.016
   0.00000000  0.40000000  0.00000000       0.016
   0.00000000  0.00000000  0.40000000       0.016
   0.20000000  0.20000000  0.00000000       0.016
   0.00000000  0.20000000  0.20000000       0.016
   0.20000000  0.00000000  0.20000000       0.016
  -0.20000000  0.20000000  0.00000000       0.016
  -0.20000000  0.00000000  0.20000000       0.016
   0.00000000 -0.20000000  0.20000000       0.016
   0.40000000  0.20000000  0.00000000       0.016
   0.00000000  0.40000000  0.20000000       0.016
   0.20000000  0.00000000  0.40000000       0.016
  -0.20000000  0.40000000  0.00000000       0.016
  -0.40000000  0.00000000  0.20000000       0.016
   0.00000000  0.20000000  0.40000000       0.016
   0.00000000 -0.40000000  0.20000000       0.016
  -0.20000000  0.00000000  0.40000000       0.016
   0.40000000  0.00000000  0.20000000       0.016
   0.00000000 -0.20000000  0.40000000       0.016
   0.40000000 -0.20000000  0.00000000       0.016
   0.20000000  0.40000000  0.00000000       0.016
   0.40000000  0.40000000  0.00000000       0.016
   0.00000000  0.40000000  0.40000000       0.016
   0.40000000  0.00000000  0.40000000       0.016
  -0.40000000  0.40000000  0.00000000       0.016
  -0.40000000  0.00000000  0.40000000       0.016
   0.00000000 -0.40000000  0.40000000       0.016
   0.20000000  0.20000000  0.20000000       0.016
  -0.20000000  0.20000000  0.20000000       0.016
  -0.20000000 -0.20000000  0.20000000       0.016
   0.20000000 -0.20000000  0.20000000       0.016
   0.40000000  0.20000000  0.20000000       0.016
   0.20000000  0.40000000  0.20000000       0.016
   0.20000000  0.20000000  0.40000000       0.016
  -0.20000000  0.40000000  0.20000000       0.016
  -0.40000000  0.20000000  0.20000000       0.016
  -0.20000000  0.20000000  0.40000000       0.016
  -0.40000000 -0.20000000  0.20000000       0.016
  -0.20000000 -0.40000000  0.20000000       0.016
  -0.20000000 -0.20000000  0.40000000       0.016
   0.20000000 -0.40000000  0.20000000       0.016
   0.40000000 -0.20000000  0.20000000       0.016
   0.20000000 -0.20000000  0.40000000       0.016
   0.40000000  0.40000000  0.20000000       0.016
   0.20000000  0.40000000  0.40000000       0.016
   0.40000000  0.20000000  0.40000000       0.016
  -0.40000000  0.40000000  0.20000000       0.016
  -0.40000000  0.20000000  0.40000000       0.016
  -0.20000000  0.40000000  0.40000000       0.016
  -0.40000000 -0.40000000  0.20000000       0.016
  -0.20000000 -0.40000000  0.40000000       0.016
  -0.40000000 -0.20000000  0.40000000       0.016
   0.40000000 -0.40000000  0.20000000       0.016
   0.40000000 -0.20000000  0.40000000       0.016
   0.20000000 -0.40000000  0.40000000       0.016
   0.40000000  0.40000000  0.40000000       0.016
  -0.40000000  0.40000000  0.40000000       0.016
  -0.40000000 -0.40000000  0.40000000       0.016
   0.40000000 -0.40000000  0.40000000       0.016
 
 position of ions in fractional coordinates (direct lattice) 
   0.00000000  0.00000000  0.00000000
   0.75000000  0.75000000  0.75000000
   0.00000000  0.50000000  0.00000000
   0.75000000  0.75000000  0.25000000
   0.00000000  0.00000000  0.50000000
   0.50000000  0.50000000  0.00000000
   0.75000000  0.25000000  0.25000000
   0.50000000  0.00000000  0.00000000
   0.50000000  0.50000000  0.50000000
   0.25000000  0.25000000  0.25000000
   0.25000000  0.25000000  0.75000000
   0.50000000  0.00000000  0.50000000
   0.25000000  0.75000000  0.75000000
   0.75000000  0.25000000  0.75000000
   0.00000000  0.50000000  0.50000000
   0.25000000  0.75000000  0.25000000
 
 position of ions in cartesian coordinates  (Angst):
   0.00000000  0.00000000  0.00000000
   4.93500000  4.93500000  4.93500000
   0.00000000  3.29000000  0.00000000
   4.93500000  4.93500000  1.64500000
   0.00000000  0.00000000  3.29000000
   3.29000000  3.29000000  0.00000000
   4.93500000  1.64500000  1.64500000
   3.29000000  0.00000000  0.00000000
   3.29000000  3.29000000  3.29000000
   1.64500000  1.64500000  1.64500000
   1.64500000  1.64500000  4.93500000
   3.29000000  0.00000000  3.29000000
   1.64500000  4.93500000  4.93500000
   4.93500000  1.64500000  4.93500000
   0.00000000  3.29000000  3.29000000
   1.64500000  4.93500000  1.64500000
 


--------------------------------------------------------------------------------------------------------


 k-point   1 :   0.0000 0.0000 0.0000  plane waves:    2517
 k-point   2 :   0.2000 0.0000 0.0000  plane waves:    2545
 k-point   3 :   0.0000 0.2000 0.0000  plane waves:    2545
 k-point   4 :   0.0000 0.0000 0.2000  plane waves:    2545
 k-point   5 :   0.4000 0.0000 0.0000  plane waves:    2569
 k-point   6 :   0.0000 0.4000 0.0000  plane waves:    2569
 k-point   7 :   0.0000 0.0000 0.4000  plane waves:    2569
 k-point   8 :   0.2000 0.2000 0.0000  plane waves:    2562
 k-point   9 :   0.0000 0.2000 0.2000  plane waves:    2562
 k-point  10 :   0.2000 0.0000 0.2000  plane waves:    2562
 k-point  11 :  -0.2000 0.2000 0.0000  plane waves:    2562
 k-point  12 :  -0.2000 0.0000 0.2000  plane waves:    2562
 k-point  13 :   0.0000-0.2000 0.2000  plane waves:    2562
 k-point  14 :   0.4000 0.2000 0.0000  plane waves:    2566
 k-point  15 :   0.0000 0.4000 0.2000  plane waves:    2566
 k-point  16 :   0.2000 0.0000 0.4000  plane waves:    2566
 k-point  17 :  -0.2000 0.4000 0.0000  plane waves:    2566
 k-point  18 :  -0.4000 0.0000 0.2000  plane waves:    2566
 k-point  19 :   0.0000 0.2000 0.4000  plane waves:    2566
 k-point  20 :   0.0000-0.4000 0.2000  plane waves:    2566
 k-point  21 :  -0.2000 0.0000 0.4000  plane waves:    2566
 k-point  22 :   0.4000 0.0000 0.2000  plane waves:    2566
 k-point  23 :   0.0000-0.2000 0.4000  plane waves:    2566
 k-point  24 :   0.4000-0.2000 0.0000  plane waves:    2566
 k-point  25 :   0.2000 0.4000 0.0000  plane waves:    2566
 k-point  26 :   0.4000 0.4000 0.0000  plane waves:    2570
 k-point  27 :   0.0000 0.4000 0.4000  plane waves:    2570
 k-point  28 :   0.4000 0.0000 0.4000  plane waves:    2570
 k-point  29 :  -0.4000 0.4000 0.0000  plane waves:    2570
 k-point  30 :  -0.4000 0.0000 0.4000  plane waves:    2570
 k-point  31 :   0.0000-0.4000 0.4000  plane waves:    2570
 k-point  32 :   0.2000 0.2000 0.2000  plane waves:    2572
 k-point  33 :  -0.2000 0.2000 0.2000  plane waves:    2572
 k-point  34 :  -0.2000-0.2000 0.2000  plane waves:    2572
 k-point  35 :   0.2000-0.2000 0.2000  plane waves:    2572
 k-point  36 :   0.4000 0.2000 0.2000  plane waves:    2546
 k-point  37 :   0.2000 0.4000 0.2000  plane waves:    2546
 k-point  38 :   0.2000 0.2000 0.4000  plane waves:    2546
 k-point  39 :  -0.2000 0.4000 0.2000  plane waves:    2546
 k-point  40 :  -0.4000 0.2000 0.2000  plane waves:    2546
 k-point  41 :  -0.2000 0.2000 0.4000  plane waves:    2546
 k-point  42 :  -0.4000-0.2000 0.2000  plane waves:    2546
 k-point  43 :  -0.2000-0.4000 0.2000  plane waves:    2546
 k-point  44 :  -0.2000-0.2000 0.4000  plane waves:    2546
 k-point  45 :   0.2000-0.4000 0.2000  plane waves:    2546
 k-point  46 :   0.4000-0.2000 0.2000  plane waves:    2546
 k-point  47 :   0.2000-0.2000 0.4000  plane waves:    2546
 k-point  48 :   0.4000 0.4000 0.2000  plane waves:    2549
 k-point  49 :   0.2000 0.4000 0.4000  plane waves:    2549
 k-point  50 :   0.4000 0.2000 0.4000  plane waves:    2549
 k-point  51 :  -0.4000 0.4000 0.2000  plane waves:    2549
 k-point  52 :  -0.4000 0.2000 0.4000  plane waves:    2549
 k-point  53 :  -0.2000 0.4000 0.4000  plane waves:    2549
 k-point  54 :  -0.4000-0.4000 0.2000  plane waves:    2549
 k-point  55 :  -0.2000-0.4000 0.4000  plane waves:    2549
 k-point  56 :  -0.4000-0.2000 0.4000  plane waves:    2549
 k-point  57 :   0.4000-0.4000 0.2000  plane waves:    2549
 k-point  58 :   0.4000-0.2000 0.4000  plane waves:    2549
 k-point  59 :   0.2000-0.4000 0.4000  plane waves:    2549
 k-point  60 :   0.4000 0.4000 0.4000  plane waves:    2533
 k-point  61 :  -0.4000 0.4000 0.4000  plane waves:    2533
 k-point  62 :  -0.4000-0.4000 0.4000  plane waves:    2533
 k-point  63 :   0.4000-0.4000 0.4000  plane waves:    2533

 maximum and minimum number of plane-waves per node :       235      194

 maximum number of plane-waves:      2572
 maximum index in each direction: 
   IXMAX=    8   IYMAX=    8   IZMAX=    8
   IXMIN=   -8   IYMIN=   -8   IZMIN=   -8


 parallel 3D FFT for wavefunctions:
    minimum data exchange during FFTs selected (reduces bandwidth)
 parallel 3D FFT for charge:
    minimum data exchange during FFTs selected (reduces bandwidth)


 total amount of memory used by VASP MPI-rank0    48253. kBytes
=======================================================================

   base      :      30000. kBytes
   nonl-proj :       8332. kBytes
   fftplans  :        456. kBytes
   grid      :        919. kBytes
   one-center:         31. kBytes
   wavefun   :       8515. kBytes
 
     INWAV:  cpu time      0.0000: real time      0.0001
 Broyden mixing: mesh for mixing (old mesh)
   NGX = 17   NGY = 17   NGZ = 17
  (NGX  = 72   NGY  = 72   NGZ  = 72)
  gives a total of   4913 points

 initial charge density was supplied:
 charge density of overlapping atoms calculated
 number of electron     210.0000000 magnetization 
 keeping initial charge density in first step


--------------------------------------------------------------------------------------------------------


 Maximum index for augmentation-charges          517 (set IRDMAX)


--------------------------------------------------------------------------------------------------------


 First call to EWALD:  gamma=   0.269
 Maximum number of real-space cells 3x 3x 3
 Maximum number of reciprocal cells 3x 3x 3

    FEWALD:  cpu time      0.0012: real time      0.0012


--------------------------------------- Iteration      1(   1)  ---------------------------------------


    POTLOK:  cpu time      0.0963: real time      0.1849
    SETDIJ:  cpu time      0.0034: real time      0.0034
     EDDAV:  cpu time      3.1520: real time      3.1659
       DOS:  cpu time      0.0051: real time      0.0051
    --------------------------------------------
      LOOP:  cpu time      3.2567: real time      3.3594

 eigenvalue-minimisations  : 16480
 total energy-change (2. order) : 0.1970651E+04  (-0.8230546E+04)
 number of electron     210.0000000 magnetization 
 augmentation part      210.0000000 magnetization 

 Free energy of the ion-electron system (eV)
  ---------------------------------------------------
  alpha Z        PSCENC =      1776.03957835
  Ewald energy   TEWEN  =    -22005.76157024
  -Hartree energ DENC   =     -4156.13630563
  -exchange      EXHF   =         0.00000000
  -V(xc)+E(xc)   XCENC  =       849.60296783
  PAW double counting   =     20476.96189539   -20168.12663064
  entropy T*S    EENTRO =        -0.00091510
  eigenvalues    EBANDS =      -629.07047642
  atomic energy  EATOM  =     25827.14201374
  Solvation  Ediel_sol  =         0.00000000
  ---------------------------------------------------
  free energy    TOTEN  =      1970.65055728 eV

  energy without entropy =     1970.65147238  energy(sigma->0) =     1970.65101483


--------------------------------------------------------------------------------------------------------




--------------------------------------- Iteration      1(   2)  ---------------------------------------


     EDDAV:  cpu time      3.1841: real time      3.1980
       DOS:  cpu time      0.0047: real time      0.0047
    --------------------------------------------
      LOOP:  cpu time      3.1888: real time      3.2027

 eigenvalue-minimisations  : 16688
 total energy-change (2. order) :-0.1984268E+04  (-0.1920072E+04)
 number of electron     210.0000000 magnetization 
 augmentation part      210.0000000 magnetization 

 Free energy of the ion-electron system (eV)
  ---------------------------------------------------
  alpha Z        PSCENC =      1776.03957835
  Ewald energy   TEWEN  =    -22005.76157024
  -Hartree energ DENC   =     -4156.13630563
  -exchange      EXHF   =         0.00000000
  -V(xc)+E(xc)   XCENC  =       849.60296783
  PAW double counting   =     20476.96189539   -20168.12663064
  entropy T*S    EENTRO =        -0.00263862
  eigenvalues    EBANDS =     -2613.33652342
  atomic energy  EATOM  =     25827.14201374
  Solvation  Ediel_sol  =         0.00000000
  ---------------------------------------------------
  free energy    TOTEN  =       -13.61721324 eV

  energy without entropy =      -13.61457462  energy(sigma->0) =      -13.61589393


--------------------------------------------------------------------------------------------------------




--------------------------------------- Iteration      1(   3)  ---------------------------------------


     EDDAV:  cpu time      4.1726: real time      4.1896
       DOS:  cpu time      0.0056: real time      0.0056
    --------------------------------------------
      LOOP:  cpu time      4.1782: real time      4.1953

 eigenvalue-minimisations  : 24280
 total energy-change (2. order) :-0.1672094E+03  (-0.1578910E+03)
 number of electron     210.0000000 magnetization 
 augmentation part      210.0000000 magnetization 

 Free energy of the ion-electron system (eV)
  ---------------------------------------------------
  alpha Z        PSCENC =      1776.03957835
  Ewald energy   TEWEN  =    -22005.76157024
  -Hartree energ DENC   =     -4156.13630563
  -exchange      EXHF   =         0.00000000
  -V(xc)+E(xc)   XCENC  =       849.60296783
  PAW double counting   =     20476.96189539   -20168.12663064
  entropy T*S    EENTRO =        -0.00237578
  eigenvalues    EBANDS =     -2780.54623174
  atomic energy  EATOM  =     25827.14201374
  Solvation  Ediel_sol  =         0.00000000
  ---------------------------------------------------
  free energy    TOTEN  =      -180.82665872 eV

  energy without entropy =     -180.82428294  energy(sigma->0) =     -180.82547083


--------------------------------------------------------------------------------------------------------




--------------------------------------- Iteration      1(   4)  ---------------------------------------


     EDDAV:  cpu time      4.3117: real time      4.3295
       DOS:  cpu time      0.0048: real time      0.0048
    --------------------------------------------
      LOOP:  cpu time      4.3165: real time      4.3343

 eigenvalue-minimisations  : 25400
 total energy-change (2. order) :-0.1088354E+02  (-0.1063179E+02)
 number of electron     210.0000000 magnetization 
 augmentation part      210.0000000 magnetization 

 Free energy of the ion-electron system (eV)
  ---------------------------------------------------
  alpha Z        PSCENC =      1776.03957835
  Ewald energy   TEWEN  =    -22005.76157024
  -Hartree energ DENC   =     -4156.13630563
  -exchange      EXHF   =         0.00000000
  -V(xc)+E(xc)   XCENC  =       849.60296783
  PAW double counting   =     20476.96189539   -20168.12663064
  entropy T*S    EENTRO =        -0.00334140
  eigenvalues    EBANDS =     -2791.42880329
  atomic energy  EATOM  =     25827.14201374
  Solvation  Ediel_sol  =         0.00000000
  ---------------------------------------------------
  free energy    TOTEN  =      -191.71019589 eV

  energy without entropy =     -191.70685449  energy(sigma->0) =     -191.70852519


--------------------------------------------------------------------------------------------------------




--------------------------------------- Iteration      1(   5)  ---------------------------------------


     EDDAV:  cpu time      4.1960: real time      4.2157
       DOS:  cpu time      0.0048: real time      0.0048
    CHARGE:  cpu time      0.0826: real time      0.0829
    MIXING:  cpu time      0.0002: real time      0.0002
    --------------------------------------------
      LOOP:  cpu time      4.2836: real time      4.3036

 eigenvalue-minimisations  : 24464
 total energy-change (2. order) :-0.5998205E+00  (-0.5955717E+00)
 number of electron     209.9999816 magnetization 
 augmentation part       41.1008958 magnetization 

 Broyden mixing:
  rms(total) = 0.51609E+01    rms(broyden)= 0.51598E+01
  rms(prec ) = 0.57128E+01
  weight for this iteration     100.00

 Free energy of the ion-electron system (eV)
  ---------------------------------------------------
  alpha Z        PSCENC =      1776.03957835
  Ewald energy   TEWEN  =    -22005.76157024
  -Hartree energ DENC   =     -4156.13630563
  -exchange      EXHF   =         0.00000000
  -V(xc)+E(xc)   XCENC  =       849.60296783
  PAW double counting   =     20476.96189539   -20168.12663064
  entropy T*S    EENTRO =        -0.00332357
  eigenvalues    EBANDS =     -2792.02864163
  atomic energy  EATOM  =     25827.14201374
  Solvation  Ediel_sol  =         0.00000000
  ---------------------------------------------------
  free energy    TOTEN  =      -192.31001640 eV

  energy without entropy =     -192.30669283  energy(sigma->0) =     -192.30835461


--------------------------------------------------------------------------------------------------------




--------------------------------------- Iteration      1(   6)  ---------------------------------------


    POTLOK:  cpu time      0.0045: real time      0.0047
    SETDIJ:  cpu time      0.0018: real time      0.0019
     EDDAV:  cpu time      3.4888: real time      3.5035
       DOS:  cpu time      0.0046: real time      0.0046
    CHARGE:  cpu time      0.0844: real time      0.0847
    MIXING:  cpu time      0.0003: real time      0.0003
    --------------------------------------------
      LOOP:  cpu time      3.5845: real time      3.5996

 eigenvalue-minimisations  : 18984
 total energy-change (2. order) : 0.7510679E+01  (-0.2153386E+01)
 number of electron     209.9999805 magnetization 
 augmentation part       42.8925898 magnetization 

 Broyden mixing:
  rms(total) = 0.18911E+01    rms(broyden)= 0.18907E+01
  rms(prec ) = 0.23991E+01
  weight for this iteration     100.00

 eigenvalues of (default mixing * dielectric matrix)
  average eigenvalue GAMMA=   1.4059
  1.4059

 Free energy of the ion-electron system (eV)
  ---------------------------------------------------
  alpha Z        PSCENC =      1776.03957835
  Ewald energy   TEWEN  =    -22005.76157024
  -Hartree energ DENC   =     -3928.71464650
  -exchange      EXHF   =         0.00000000
  -V(xc)+E(xc)   XCENC  =       838.33703617
  PAW double counting   =     23981.35745307   -23698.97271208
  entropy T*S    EENTRO =        -0.00175194
  eigenvalues    EBANDS =     -2974.22473775
  atomic energy  EATOM  =     25827.14201374
  Solvation  Ediel_sol  =         0.00000000
  ---------------------------------------------------
  free energy    TOTEN  =      -184.79933718 eV

  energy without entropy =     -184.79758524  energy(sigma->0) =     -184.79846121


--------------------------------------------------------------------------------------------------------




--------------------------------------- Iteration      1(   7)  ---------------------------------------


    POTLOK:  cpu time      0.0045: real time      0.0047
    SETDIJ:  cpu time      0.0017: real time      0.0017
     EDDAV:  cpu time      4.0675: real time      4.0841
       DOS:  cpu time      0.0048: real time      0.0048
    CHARGE:  cpu time      0.0825: real time      0.0828
    MIXING:  cpu time      0.0003: real time      0.0003
    --------------------------------------------
      LOOP:  cpu time      4.1612: real time      4.1784

 eigenvalue-minimisations  : 23384
 total energy-change (2. order) :-0.3663910E+00  (-0.1680605E+01)
 number of electron     209.9999813 magnetization 
 augmentation part       42.6399359 magnetization 

 Broyden mixing:
  rms(total) = 0.11184E+01    rms(broyden)= 0.11180E+01
  rms(prec ) = 0.26118E+01
  weight for this iteration     100.00

 eigenvalues of (default mixing * dielectric matrix)
  average eigenvalue GAMMA=   1.0640
  1.5848  0.5431

 Free energy of the ion-electron system (eV)
  ---------------------------------------------------
  alpha Z        PSCENC =      1776.03957835
  Ewald energy   TEWEN  =    -22005.76157024
  -Hartree energ DENC   =     -3864.14335894
  -exchange      EXHF   =         0.00000000
  -V(xc)+E(xc)   XCENC  =       834.61482986
  PAW double counting   =     26082.42973396   -25808.28064691
  entropy T*S    EENTRO =        -0.00131427
  eigenvalues    EBANDS =     -3027.20499370
  atomic energy  EATOM  =     25827.14201374
  Solvation  Ediel_sol  =         0.00000000
  ---------------------------------------------------
  free energy    TOTEN  =      -185.16572815 eV

  energy without entropy =     -185.16441387  energy(sigma->0) =     -185.16507101


--------------------------------------------------------------------------------------------------------




--------------------------------------- Iteration      1(   8)  ---------------------------------------


    POTLOK:  cpu time      0.0040: real time      0.0042
    SETDIJ:  cpu time      0.0017: real time      0.0017
     EDDAV:  cpu time      3.6677: real time      3.6828
       DOS:  cpu time      0.0046: real time      0.0046
    CHARGE:  cpu time      0.0813: real time      0.0816
    MIXING:  cpu time      0.0002: real time      0.0002
    --------------------------------------------
      LOOP:  cpu time      3.7596: real time      3.7751

 eigenvalue-minimisations  : 20592
 total energy-change (2. order) : 0.2381739E+01  (-0.8342461E+00)
 number of electron     209.9999807 magnetization 
 augmentation part       43.1297618 magnetization 

 Broyden mixing:
  rms(total) = 0.42187E+00    rms(broyden)= 0.42104E+00
  rms(prec ) = 0.67088E+00
  weight for this iteration     100.00

 eigenvalues of (default mixing * dielectric matrix)
  average eigenvalue GAMMA=   1.0004
  1.6439  0.9625  0.3948

 Free energy of the ion-electron system (eV)
  ---------------------------------------------------
  alpha Z        PSCENC =      1776.03957835
  Ewald energy   TEWEN  =    -22005.76157024
  -Hartree energ DENC   =     -3823.34679813
  -exchange      EXHF   =         0.00000000
  -V(xc)+E(xc)   XCENC  =       832.77579405
  PAW double counting   =     26852.75119906   -26583.41127568
  entropy T*S    EENTRO =        -0.00164335
  eigenvalues    EBANDS =     -3058.97128693
  atomic energy  EATOM  =     25827.14201374
  Solvation  Ediel_sol  =         0.00000000
  ---------------------------------------------------
  free energy    TOTEN  =      -182.78398914 eV

  energy without entropy =     -182.78234578  energy(sigma->0) =     -182.78316746


--------------------------------------------------------------------------------------------------------




--------------------------------------- Iteration      1(   9)  ---------------------------------------


    POTLOK:  cpu time      0.0040: real time      0.0042
    SETDIJ:  cpu time      0.0017: real time      0.0017
     EDDAV:  cpu time      3.8663: real time      3.8824
       DOS:  cpu time      0.0048: real time      0.0048
    CHARGE:  cpu time      0.0824: real time      0.0827
    MIXING:  cpu time      0.0003: real time      0.0003
    --------------------------------------------
      LOOP:  cpu time      3.9594: real time      3.9760

 eigenvalue-minimisations  : 21800
 total energy-change (2. order) : 0.8552368E-02  (-0.1533151E+00)
 number of electron     209.9999808 magnetization 
 augmentation part       43.1816896 magnetization 

 Broyden mixing:
  rms(total) = 0.30300E+00    rms(broyden)= 0.30295E+00
  rms(prec ) = 0.41031E+00
  weight for this iteration     100.00

 eigenvalues of (default mixing * dielectric matrix)
  average eigenvalue GAMMA=   1.1337
  1.9089  1.6963  0.5561  0.3733

 Free energy of the ion-electron system (eV)
  ---------------------------------------------------
  alpha Z        PSCENC =      1776.03957835
  Ewald energy   TEWEN  =    -22005.76157024
  -Hartree energ DENC   =     -3818.15550348
  -exchange      EXHF   =         0.00000000
  -V(xc)+E(xc)   XCENC  =       832.55860692
  PAW double counting   =     27080.87089777   -26811.15777353
  entropy T*S    EENTRO =        -0.00214904
  eigenvalues    EBANDS =     -3064.30953726
  atomic energy  EATOM  =     25827.14201374
  Solvation  Ediel_sol  =         0.00000000
  ---------------------------------------------------
  free energy    TOTEN  =      -182.77543677 eV

  energy without entropy =     -182.77328773  energy(sigma->0) =     -182.77436225


--------------------------------------------------------------------------------------------------------




--------------------------------------- Iteration      1(  10)  ---------------------------------------


    POTLOK:  cpu time      0.0044: real time      0.0046
    SETDIJ:  cpu time      0.0017: real time      0.0017
     EDDAV:  cpu time      3.8441: real time      3.8603
       DOS:  cpu time      0.0050: real time      0.0050
    CHARGE:  cpu time      0.0855: real time      0.0857
    MIXING:  cpu time      0.0003: real time      0.0003
    --------------------------------------------
      LOOP:  cpu time      3.9411: real time      3.9577

 eigenvalue-minimisations  : 21672
 total energy-change (2. order) : 0.1744462E-01  (-0.3647043E-01)
 number of electron     209.9999809 magnetization 
 augmentation part       43.1063040 magnetization 

 Broyden mixing:
  rms(total) = 0.14981E+00    rms(broyden)= 0.14978E+00
  rms(prec ) = 0.25074E+00
  weight for this iteration     100.00

 eigenvalues of (default mixing * dielectric matrix)
  average eigenvalue GAMMA=   1.1484
  2.4777  1.6863  0.7925  0.3927  0.3927

 Free energy of the ion-electron system (eV)
  ---------------------------------------------------
  alpha Z        PSCENC =      1776.03957835
  Ewald energy   TEWEN  =    -22005.76157024
  -Hartree energ DENC   =     -3819.04718901
  -exchange      EXHF   =         0.00000000
  -V(xc)+E(xc)   XCENC  =       832.56337651
  PAW double counting   =     27272.34279188   -27000.80265146
  entropy T*S    EENTRO =        -0.00238320
  eigenvalues    EBANDS =     -3065.23195873
  atomic energy  EATOM  =     25827.14201374
  Solvation  Ediel_sol  =         0.00000000
  ---------------------------------------------------
  free energy    TOTEN  =      -182.75799215 eV

  energy without entropy =     -182.75560894  energy(sigma->0) =     -182.75680054


--------------------------------------------------------------------------------------------------------




--------------------------------------- Iteration      1(  11)  ---------------------------------------


    POTLOK:  cpu time      0.0044: real time      0.0046
    SETDIJ:  cpu time      0.0017: real time      0.0017
     EDDAV:  cpu time      3.7437: real time      3.7593
       DOS:  cpu time      0.0048: real time      0.0048
    CHARGE:  cpu time      0.0841: real time      0.0844
    MIXING:  cpu time      0.0003: real time      0.0003
    --------------------------------------------
      LOOP:  cpu time      3.8390: real time      3.8552

 eigenvalue-minimisations  : 21056
 total energy-change (2. order) : 0.8788722E-02  (-0.1164610E-01)
 number of electron     209.9999809 magnetization 
 augmentation part       43.0723330 magnetization 

 Broyden mixing:
  rms(total) = 0.53012E-01    rms(broyden)= 0.52927E-01
  rms(prec ) = 0.14418E+00
  weight for this iteration     100.00

 eigenvalues of (default mixing * dielectric matrix)
  average eigenvalue GAMMA=   1.0569
  2.5252  1.6727  0.8555  0.3737  0.4570  0.4570

 Free energy of the ion-electron system (eV)
  ---------------------------------------------------
  alpha Z        PSCENC =      1776.03957835
  Ewald energy   TEWEN  =    -22005.76157024
  -Hartree energ DENC   =     -3820.54452369
  -exchange      EXHF   =         0.00000000
  -V(xc)+E(xc)   XCENC  =       832.62051596
  PAW double counting   =     27376.18535529   -27103.13974509
  entropy T*S    EENTRO =        -0.00238927
  eigenvalues    EBANDS =     -3065.28843848
  atomic energy  EATOM  =     25827.14201374
  Solvation  Ediel_sol  =         0.00000000
  ---------------------------------------------------
  free energy    TOTEN  =      -182.74920342 eV

  energy without entropy =     -182.74681415  energy(sigma->0) =     -182.74800879


--------------------------------------------------------------------------------------------------------




--------------------------------------- Iteration      1(  12)  ---------------------------------------


    POTLOK:  cpu time      0.0045: real time      0.0047
    SETDIJ:  cpu time      0.0017: real time      0.0017
     EDDAV:  cpu time      3.9392: real time      3.9557
       DOS:  cpu time      0.0048: real time      0.0048
    CHARGE:  cpu time      0.0846: real time      0.0849
    MIXING:  cpu time      0.0003: real time      0.0003
    --------------------------------------------
      LOOP:  cpu time      4.0350: real time      4.0520

 eigenvalue-minimisations  : 22568
 total energy-change (2. order) : 0.5933698E-02  (-0.3621622E-02)
 number of electron     209.9999809 magnetization 
[...]
     33     -25.0476      2.00000
     34     -25.0269      2.00000
     35     -25.0008      2.00000
     36     -24.9132      2.00000
     37     -24.8997      2.00000
     38     -24.5098      2.00000
     39     -24.4278      2.00000
     40     -24.3029      2.00000
     41     -24.2881      2.00000
     42     -24.2614      2.00000
     43     -24.2304      2.00000
     44     -24.1578      2.00000
     45     -24.0882      2.00000
     46     -24.0360      2.00000
     47     -21.2098      2.00000
     48     -21.1878      2.00000
     49     -21.1399      2.00000
     50     -21.0709      2.00000
     51     -21.0239      2.00000
     52     -20.9720      2.00000
     53     -20.8993      2.00000
     54     -20.8588      2.00000
     55     -20.8153      2.00000
     56     -20.7511      2.00000
     57     -20.7249      2.00000
     58     -20.6507      2.00000
     59     -20.6230      2.00000
     60     -20.5964      2.00000
     61     -20.5488      2.00000
     62       4.2963      2.00000
     63       4.6362      2.00000
     64       5.0737      2.00000
     65       5.2998      2.00000
     66       5.5952      2.00000
     67       5.8362      2.00000
     68       6.0170      2.00000
     69       6.5342      2.00000
     70       6.7898      2.00000
     71       6.8279      2.00000
     72       6.8500      2.00000
     73       6.9202      2.00000
     74       6.9665      2.00000
     75       7.0193      2.00000
     76       7.0681      2.00000
     77       7.0761      2.00000
     78       7.1937      2.00000
     79       7.2302      2.00000
     80       7.2618      2.00000
     81       7.3252      2.00000
     82       7.5704      2.00000
     83       7.6083      2.00000
     84       7.6767      2.00000
     85       7.6961      2.00000
     86       7.7601      2.00000
     87       7.7736      2.00000
     88       7.8053      2.00000
     89       7.8499      2.00000
     90       7.8610      2.00000
     91       7.8953      2.00000
     92       7.9353      2.00000
     93       7.9596      2.00000
     94       7.9939      2.00000
     95       8.0100      2.00000
     96       8.0514      2.00000
     97       8.0738      2.00000
     98       8.1321      2.00000
     99       8.1473      2.00000
    100       8.1746      2.00000
    101       8.2154      2.00000
    102       8.2922      2.00000
    103       8.3419      2.00000
    104       8.4095      2.00000
    105       8.4396      2.00000
    106       8.4559      2.00000
    107       8.5121      2.00000
    108       8.5308      2.00000
    109       8.9338      2.00000
    110      11.5410      0.00000
    111      11.5612      0.00000
    112      11.6369      0.00000
    113      11.6874      0.00000
    114      11.7832      0.00000
    115      11.8335      0.00000
    116      11.9032      0.00000
    117      11.9782      0.00000
    118      12.0414      0.00000
    119      12.0709      0.00000
    120      12.1264      0.00000
    121      12.2021      0.00000
    122      12.2700      0.00000
    123      12.3429      0.00000
    124      12.3932      0.00000
    125      12.4443      0.00000
    126      12.5116      0.00000
    127      12.6586      0.00000
    128      12.7551      0.00000

 k-point    63 :       0.4000   -0.4000    0.4000
  band No.  band energies     occupation 
      1     -64.0934      2.00000
      2     -64.0879      2.00000
      3     -64.0537      2.00000
      4     -64.0151      2.00000
      5     -51.0231      2.00000
      6     -50.9791      2.00000
      7     -50.9613      2.00000
      8     -50.9079      2.00000
      9     -44.8435      2.00000
     10     -44.8176      2.00000
     11     -44.7567      2.00000
     12     -44.7389      2.00000
     13     -44.7034      2.00000
     14     -28.4821      2.00000
     15     -28.4046      2.00000
     16     -28.3123      2.00000
     17     -28.3077      2.00000
     18     -28.2990      2.00000
     19     -28.2827      2.00000
     20     -28.2752      2.00000
     21     -28.2682      2.00000
     22     -28.2483      2.00000
     23     -28.2137      2.00000
     24     -28.1252      2.00000
     25     -28.0322      2.00000
     26     -25.2853      2.00000
     27     -25.2780      2.00000
     28     -25.1989      2.00000
     29     -25.1364      2.00000
     30     -25.1300      2.00000
     31     -25.1047      2.00000
     32     -25.0743      2.00000
     33     -25.0470      2.00000
     34     -25.0266      2.00000
     35     -25.0011      2.00000
     36     -24.9131      2.00000
     37     -24.9005      2.00000
     38     -24.5100      2.00000
     39     -24.4279      2.00000
     40     -24.3033      2.00000
     41     -24.2880      2.00000
     42     -24.2619      2.00000
     43     -24.2302      2.00000
     44     -24.1576      2.00000
     45     -24.0877      2.00000
     46     -24.0359      2.00000
     47     -21.2098      2.00000
     48     -21.1877      2.00000
     49     -21.1397      2.00000
     50     -21.0714      2.00000
     51     -21.0239      2.00000
     52     -20.9715      2.00000
     53     -20.8992      2.00000
     54     -20.8587      2.00000
     55     -20.8150      2.00000
     56     -20.7516      2.00000
     57     -20.7252      2.00000
     58     -20.6506      2.00000
     59     -20.6229      2.00000
     60     -20.5965      2.00000
     61     -20.5487      2.00000
     62       4.2276      2.00000
     63       4.9030      2.00000
     64       5.0020      2.00000
     65       5.1283      2.00000
     66       5.6160      2.00000
     67       5.8302      2.00000
     68       6.0074      2.00000
     69       6.5533      2.00000
     70       6.7598      2.00000
     71       6.8254      2.00000
     72       6.8693      2.00000
     73       6.9399      2.00000
     74       6.9689      2.00000
     75       7.0370      2.00000
     76       7.0757      2.00000
     77       7.1173      2.00000
     78       7.1313      2.00000
     79       7.2133      2.00000
     80       7.2817      2.00000
     81       7.2911      2.00000
     82       7.5746      2.00000
     83       7.6092      2.00000
     84       7.6590      2.00000
     85       7.7511      2.00000
     86       7.7765      2.00000
     87       7.7900      2.00000
     88       7.8147      2.00000
     89       7.8543      2.00000
     90       7.8658      2.00000
     91       7.9039      2.00000
     92       7.9319      2.00000
     93       7.9712      2.00000
     94       7.9968      2.00000
     95       8.0316      2.00000
     96       8.0443      2.00000
     97       8.0740      2.00000
     98       8.1128      2.00000
     99       8.1592      2.00000
    100       8.1971      2.00000
    101       8.2113      2.00000
    102       8.2616      2.00000
    103       8.3064      2.00000
    104       8.3832      2.00000
    105       8.3990      2.00000
    106       8.4830      2.00000
    107       8.5221      2.00000
    108       8.5341      2.00000
    109       8.9171      2.00000
    110      11.4716      0.00000
    111      11.5760      0.00000
    112      11.6825      0.00000
    113      11.7186      0.00000
    114      11.8002      0.00000
    115      11.8525      0.00000
    116      11.8866      0.00000
    117      11.9221      0.00000
    118      12.0126      0.00000
    119      12.0661      0.00000
    120      12.1071      0.00000
    121      12.1786      0.00000
    122      12.2794      0.00000
    123      12.3928      0.00000
    124      12.4652      0.00000
    125      12.5067      0.00000
    126      12.5449      0.00000
    127      12.6803      0.00000
    128      12.7486      0.00000


--------------------------------------------------------------------------------------------------------


 soft charge-density along one line, spin component           1
         0         1         2         3         4         5         6         7         8         9
 total charge-density along one line
 
 pseudopotential strength for first ion, spin component:           1
  5.748 -20.270  -0.000   0.000  -0.001   0.000  -0.001   0.002
-20.270   9.189  -0.000   0.000  -0.001  -0.000  -0.000   0.000
 -0.000  -0.000  -9.758  -0.001   0.002   5.992   0.001  -0.002
  0.000   0.000  -0.001  -9.757   0.001   0.001   5.991  -0.001
 -0.001  -0.001   0.002   0.001  -9.761  -0.002  -0.001   5.994
  0.000  -0.000   5.992   0.001  -0.002   7.949  -0.001   0.002
 -0.001  -0.000   0.001   5.991  -0.001  -0.001   7.950   0.001
  0.002   0.000  -0.002  -0.001   5.994   0.002   0.001   7.948
  0.002   0.001  -0.001  -0.000  -0.000   0.001   0.000   0.000
 -0.001  -0.000   0.000  -0.000  -0.000  -0.000   0.000   0.000
  0.001   0.000   0.000   0.000   0.000  -0.000  -0.000  -0.001
  0.001   0.000  -0.000  -0.001   0.000   0.000   0.001  -0.000
 -0.001  -0.000   0.000  -0.000  -0.001  -0.000  -0.000   0.001
  0.002   0.001  -0.001  -0.000  -0.000   0.001   0.000   0.000
 -0.001  -0.000   0.000  -0.000  -0.000  -0.000   0.000   0.000
  0.001   0.000   0.000   0.000   0.001  -0.000  -0.000  -0.001
  0.001   0.000  -0.000  -0.001   0.000   0.000   0.001  -0.000
 -0.001  -0.000   0.000   0.000  -0.001  -0.000  -0.000   0.001
 total augmentation occupancy for first ion, spin component:           1
  1.995  -0.048  -0.000   0.000  -0.000  -0.000   0.000  -0.000   0.014  -0.001   0.001   0.001  -0.001  -0.011   0.001  -0.001
 -0.048   1.337  -0.001   0.001  -0.001   0.000  -0.001   0.001   0.020  -0.008   0.014   0.008  -0.034   0.006   0.006  -0.007
 -0.000  -0.001   1.996  -0.000  -0.000  -0.031   0.000   0.002  -0.006   0.002   0.001  -0.000   0.001   0.004  -0.001  -0.001
  0.000   0.001  -0.000   1.996   0.000   0.000  -0.031  -0.000  -0.000  -0.002   0.002  -0.006  -0.000  -0.000   0.001  -0.001
 -0.000  -0.001  -0.000   0.000   1.996   0.002  -0.000  -0.030  -0.002  -0.000   0.002   0.002  -0.003   0.001  -0.000  -0.002
 -0.000   0.000  -0.031   0.000   0.002   0.070  -0.000  -0.004   0.014  -0.005  -0.000   0.003   0.000  -0.009   0.003   0.000
  0.000  -0.001   0.000  -0.031  -0.000  -0.000   0.070   0.000   0.003   0.004  -0.001   0.014   0.000  -0.001  -0.003   0.001
 -0.000   0.001   0.002  -0.000  -0.030  -0.004   0.000   0.067   0.005   0.003  -0.001  -0.005   0.002  -0.003  -0.001   0.001
  0.014   0.020  -0.006  -0.000  -0.002   0.014   0.003   0.005   3.357   0.031  -0.106  -0.032  -0.003  -1.422  -0.016   0.045
 -0.001  -0.008   0.002  -0.002  -0.000  -0.005   0.004   0.003   0.031   3.353  -0.005  -0.062   0.010  -0.016  -1.424   0.003
  0.001   0.014   0.001   0.002   0.002  -0.000  -0.001  -0.001  -0.106  -0.005   2.741   0.006   0.041   0.043   0.003  -1.243
  0.001   0.008  -0.000  -0.006   0.002   0.003   0.014  -0.005  -0.032  -0.062   0.006   3.374   0.010   0.017   0.052  -0.003
 -0.001  -0.034   0.001  -0.000  -0.003   0.000   0.000   0.002  -0.003   0.010   0.041   0.010   2.700   0.001  -0.005  -0.018
 -0.011   0.006   0.004  -0.000   0.001  -0.009  -0.001  -0.003  -1.422  -0.016   0.043   0.017   0.001   0.613   0.009  -0.018
  0.001   0.006  -0.001   0.001  -0.000   0.003  -0.003  -0.001  -0.016  -1.424   0.003   0.052  -0.005   0.009   0.616  -0.002
 -0.001  -0.007  -0.001  -0.001  -0.002   0.000   0.001   0.001   0.045   0.003  -1.243  -0.003  -0.018  -0.018  -0.002   0.571
 -0.001  -0.006  -0.000   0.004  -0.001  -0.002  -0.009   0.003   0.017   0.052  -0.003  -1.427  -0.005  -0.009  -0.032   0.002
  0.001   0.015  -0.001   0.000   0.002  -0.000  -0.000  -0.001   0.002  -0.005  -0.018  -0.005  -1.223  -0.001   0.003   0.008


------------------------ aborting loop because EDIFF is reached ----------------------------------------


    CHARGE:  cpu time      0.0877: real time      0.0881
    FORLOC:  cpu time      0.0005: real time      0.0005
    FORNL :  cpu time      0.8272: real time      0.8300
    STRESS:  cpu time      1.0147: real time      1.0183
    FORCOR:  cpu time      0.0047: real time      0.0048
    FORHAR:  cpu time      0.0014: real time      0.0014
    MIXING:  cpu time      0.0008: real time      0.0008
    OFIELD:  cpu time      0.0000: real time      0.0000

  FORCE on cell =-STRESS in cart. coord.  units (eV):
  Direction    XX          YY          ZZ          XY          YZ          ZX
  --------------------------------------------------------------------------------------
  Alpha Z  1776.03958  1776.03958  1776.03958
  Ewald   -7341.49520 -7361.08716 -7303.24915   -16.86146     0.00000     0.00000
  Hartree  1267.26292  1250.20318  1303.29959   -16.56589     0.61910     0.55738
  E(xc)    -967.44161  -967.41333  -967.44196     0.04724    -0.00950    -0.01107
  Local    1653.45864  1689.31567  1580.30009    32.09107    -0.55604    -0.39035
  n-local  -315.13837  -316.16537  -318.64371    -0.33670    -0.08492    -0.12360
  augment   557.89269   558.11561   558.11762     0.33421     0.00546    -0.00911
  Kinetic  3342.64911  3344.36435  3344.82021     0.53597     0.16470     0.14105
  Fock        0.00000     0.00000     0.00000     0.00000     0.00000     0.00000
  -------------------------------------------------------------------------------------
  Total     -26.77224   -26.62749   -26.75772    -0.75557     0.13879     0.16430
  in kB    -150.56278  -149.74870  -150.48110    -4.24919     0.78054     0.92401
  external pressure =     -150.26 kB  Pullay stress =        0.00 kB


 VOLUME and BASIS-vectors are now :
 -----------------------------------------------------------------------------
  energy-cutoff  :      250.00
  volume of cell :      284.89
      direct lattice vectors                 reciprocal lattice vectors
     6.580000000  0.000000000  0.000000000     0.151975684  0.000000000  0.000000000
     0.000000000  6.580000000  0.000000000     0.000000000  0.151975684  0.000000000
     0.000000000  0.000000000  6.580000000     0.000000000  0.000000000  0.151975684

  length of vectors
     6.580000000  6.580000000  6.580000000     0.151975684  0.151975684  0.151975684


 FORCES acting on ions
    electron-ion (+dipol)            ewald-force                    non-local-force                 convergence-correction
 -----------------------------------------------------------------------------------------------
   -.408E+02 -.408E+02 -.388E-01   0.408E+02 0.408E+02 0.284E-13   -.143E+00 -.684E-01 0.635E-01   -.968E-04 -.161E-04 -.663E-04
   -.423E+00 -.413E+02 0.204E+02   -.537E-13 0.408E+02 -.204E+02   0.486E-01 0.542E-01 0.121E+00   -.191E-04 0.191E-05 0.383E-04
   -.408E+02 0.408E+02 -.253E-01   0.408E+02 -.408E+02 -.284E-13   -.151E+00 0.675E-01 0.616E-01   -.107E-03 0.158E-04 -.446E-04
   -.440E+00 -.413E+02 -.204E+02   -.947E-13 0.408E+02 0.204E+02   0.554E-01 0.698E-01 -.122E+00   -.413E-04 -.105E-04 -.314E-04
   -.407E+02 -.408E+02 0.390E-01   0.408E+02 0.408E+02 0.284E-13   -.154E+00 -.575E-01 -.632E-01   -.114E-03 -.251E-04 0.596E-04
   0.438E+02 0.439E+02 -.638E-01   -.439E+02 -.439E+02 0.000E+00   0.115E+00 0.173E-01 0.536E-01   0.989E-04 -.102E-04 -.493E-04
   -.211E+00 0.442E+02 -.219E+02   0.141E-12 -.439E+02 0.220E+02   -.679E-01 0.211E-01 -.767E-01   -.500E-04 -.785E-05 -.418E-04
   0.438E+02 -.439E+02 -.851E-01   -.439E+02 0.439E+02 -.568E-13   0.956E-01 -.207E-01 0.615E-01   0.870E-04 0.123E-04 -.508E-04
   0.438E+02 0.439E+02 0.610E-01   -.439E+02 -.439E+02 0.284E-13   0.906E-01 0.159E-01 -.506E-01   0.957E-04 -.122E-05 0.444E-04
   0.504E+00 0.350E+02 -.172E+02   0.170E-12 -.345E+02 0.173E+02   -.557E-03 -.342E-01 -.566E-01   0.692E-04 0.118E-04 -.389E-04
   0.463E+00 0.350E+02 0.173E+02   0.114E-12 -.345E+02 -.173E+02   0.109E-01 -.206E-01 0.500E-01   0.671E-04 0.102E-04 0.501E-04
   0.345E+02 -.345E+02 0.403E-02   -.345E+02 0.345E+02 0.000E+00   0.713E-01 -.276E-01 -.396E-01   0.112E-03 -.137E-05 0.158E-04
   0.237E+00 -.442E+02 0.220E+02   -.142E-12 0.439E+02 -.220E+02   0.107E+00 -.644E-01 -.426E-02   0.209E-04 0.932E-05 0.596E-04
   -.277E+00 0.443E+02 0.220E+02   0.143E-12 -.439E+02 -.220E+02   -.946E-01 0.654E-01 -.555E-02   -.784E-04 0.760E-05 0.762E-04
   -.439E+02 0.439E+02 0.374E-01   0.439E+02 -.439E+02 -.568E-13   0.210E-01 -.145E-01 -.149E-01   -.111E-03 0.247E-04 0.252E-04
   0.236E+00 -.442E+02 -.220E+02   -.850E-13 0.439E+02 0.220E+02   0.114E+00 -.686E-01 0.264E-02   0.587E-04 -.474E-06 -.484E-04
 -----------------------------------------------------------------------------------------------
   -.119E+00 0.651E-01 0.193E-01   0.199E-12 0.107E-12 -.107E-13   0.119E+00 -.651E-01 -.193E-01   -.802E-05 0.209E-04 -.239E-05
 
 
 POSITION                                       TOTAL-FORCE (eV/Angst)
 -----------------------------------------------------------------------------------
      0.00000      0.00000      0.00000        -0.130459     -0.071923      0.024691
      4.93500      4.93500      4.93500        -0.374535     -0.422734      0.080710
      0.00000      3.29000      0.00000        -0.144458      0.090957      0.036262
      4.93500      4.93500      1.64500        -0.384660     -0.448069     -0.086816
      0.00000      0.00000      3.29000        -0.094501     -0.073560     -0.024204
      3.29000      3.29000      0.00000        -0.008787      0.016123     -0.010311
      4.93500      1.64500      1.64500        -0.278759      0.310910      0.004834
      3.29000      0.00000      0.00000        -0.020115     -0.010336     -0.023638
      3.29000      3.29000      3.29000         0.010280      0.006693      0.010434
      1.64500      1.64500      1.64500         0.503473      0.491761     -0.045772
      1.64500      1.64500      4.93500         0.474311      0.485810      0.047201
      3.29000      0.00000      3.29000         0.090684     -0.029982     -0.035596
      1.64500      4.93500      4.93500         0.344331     -0.372804     -0.000478
      4.93500      1.64500      4.93500        -0.372127      0.398640     -0.001749
      0.00000      3.29000      3.29000         0.034802      0.004501      0.022604
      1.64500      4.93500      1.64500         0.350520     -0.375986      0.001828
 -----------------------------------------------------------------------------------
    total drift:                                0.000011     -0.000018     -0.000002


--------------------------------------------------------------------------------------------------------



  FREE ENERGIE OF THE ION-ELECTRON SYSTEM (eV)
  ---------------------------------------------------
  free  energy   TOTEN  =      -182.74209649 eV

  energy  without entropy=     -182.73951953  energy(sigma->0) =     -182.74080801
 


--------------------------------------------------------------------------------------------------------


    POTLOK:  cpu time      0.0065: real time      0.0199


--------------------------------------------------------------------------------------------------------


     LOOP+:  cpu time    185.4914: real time    186.5679
    4ORBIT:  cpu time      0.0000: real time      0.0000

 total amount of memory used by VASP MPI-rank0    48253. kBytes
=======================================================================

   base      :      30000. kBytes
   nonl-proj :       8332. kBytes
   fftplans  :        456. kBytes
   grid      :        919. kBytes
   one-center:         31. kBytes
   wavefun   :       8515. kBytes
 
  
  
 General timing and accounting informations for this job:
 ========================================================
  
                  Total CPU time used (sec):      188.805
                            User time (sec):      185.468
                          System time (sec):        3.336
                         Elapsed time (sec):      191.037
  
                   Maximum memory used (kb):       90808.
                   Average memory used (kb):          N/A
  
                          Minor page faults:         9034
                          Major page faults:            0
                 Voluntary context switches:          291
