 vasp.6.3.1 04May22 (build Jul 26 2022 04:02:40) complex                        
  
 executed on             LinuxIFC date 2023.11.30  02:26:27
 running on   48 total cores
 distrk:  each k-point on   48 cores,    1 groups
 distr:  one band on NCORE=  12 cores,    4 groups


--------------------------------------------------------------------------------------------------------


 INCAR:
   ISTART = 0
   NWRITE = 2
   PREC = Accurate
   ENCUT = 250
   GGA = PE
   NSW = 0
   ISIF = 2
   ISYM = 2
   NBLOCK = 1
   KBLOCK = 1
   IBRION = -1
   NELM = 80
   EDIFF = 1E-08
   EDIFFG = -0.01
   ALGO = Normal
   LDIAG = .TRUE.
   LREAL = .FALSE.
   ISMEAR = 0
   SIGMA = 0.02
   ICHARG = 2
   LPLANE = .TRUE.
   NPAR = 4
   LSCALU = .FALSE.
   NSIM = 4
   LWAVE = .FALSE.
   LCHARG = .FALSE.
   ICORELEVEL = 1

 POTCAR:    PAW_PBE Nb_sv 25May2007               
 POTCAR:    PAW_PBE Mo_sv 02Feb2006               
 POTCAR:    PAW_PBE Ta_pv 07Sep2000               
 POTCAR:    PAW_PBE W_sv 04Sep2015                
 POTCAR:    PAW_PBE Nb_sv 25May2007               
   SHA256 =  0e8fc07c9fcd1164cf2ade22d0399fd28f85e91cd773dfa6cf24839a48c95e24 Nb_sv/POTCAR          
   COPYR  = (c) Copyright 25May2007 Georg Kresse                                                    
   COPYR  = This file is part of the software VASP. Any use, copying, and all other rights are regul
   COPYR  = If you do not have a valid VASP license, you may not use, copy or distribute this file. 
   VRHFIN =Nb: 4p5s4d                                                                               
   LEXCH  = PE                                                                                      
   EATOM  =  1555.1913 eV,  114.3033 Ry                                                             
                                                                                                    
   TITEL  = PAW_PBE Nb_sv 25May2007                                                                 
   LULTRA =        F    use ultrasoft PP ?                                                          
   IUNSCR =        1    unscreen: 0-lin 1-nonlin 2-no                                               
   RPACOR =    1.800    partial core radius                                                         
   POMASS =   92.910; ZVAL   =   13.000    mass and valenz                                          
   RCORE  =    2.400    outmost cutoff radius                                                       
   RWIGS  =    2.400; RWIGS  =    1.270    wigner-seitz radius (au A)                               
   ENMAX  =  293.235; ENMIN  =  219.927 eV                                                          
   ICORE  =        3    local potential                                                             
   LCOR   =        T    correct aug charges                                                         
   LPAW   =        T    paw PP                                                                      
   EAUG   =  455.659                                                                                
   DEXC   =    0.000                                                                                
   RMAX   =    2.456    core radius for proj-oper                                                   
   RAUG   =    1.300    factor for augmentation sphere                                              
   RDEP   =    2.451    radius for radial grids                                                     
   RDEPT  =    1.956    core radius for aug-charge                                                  
                                                                                                    
   Atomic configuration                                                                             
   11 entries                                                                                       
     n  l   j            E        occ.                                                              
     1  0  0.50    -18805.2457   2.0000                                                             
     2  0  0.50     -2630.2869   2.0000                                                             
     2  1  1.50     -2348.4046   6.0000                                                             
     3  0  0.50      -438.8757   2.0000                                                             
     3  1  1.50      -346.7588   6.0000                                                             
     3  2  2.50      -196.2560  10.0000                                                             
     4  0  0.50       -58.3859   2.0000                                                             
     5  0  0.50        -3.9816   1.0000                                                             
     4  1  1.50       -34.5141   6.0000                                                             
     4  2  2.50        -3.0408   4.0000                                                             
     4  3  2.50        -1.3606   0.0000                                                             
   Description                                                                                      
     l       E           TYP  RCUT    TYP  RCUT                                                     
     0    -58.3859094     23  2.200                                                                 
     0     -3.9816262     23  2.200                                                                 
     1    -34.5140738     23  2.200                                                                 
     1     13.6058260     23  2.200                                                                 
     2     -3.0408010     23  2.200                                                                 
     2     -0.1283038     23  2.200                                                                 
     3     -1.3605826     23  2.400                                                                 
  local pseudopotential read in
  partial core-charges read in
  partial kinetic energy density read in
  atomic valenz-charges read in
  non local Contribution for L=           0  read in
    real space projection operators read in
  non local Contribution for L=           0  read in
    real space projection operators read in
  non local Contribution for L=           1  read in
    real space projection operators read in
  non local Contribution for L=           1  read in
    real space projection operators read in
  non local Contribution for L=           2  read in
    real space projection operators read in
  non local Contribution for L=           2  read in
    real space projection operators read in
    PAW grid and wavefunctions read in
 
   number of l-projection  operators is LMAX  =           6
   number of lm-projection operators is LMMAX =          18
 
 POTCAR:    PAW_PBE Mo_sv 02Feb2006               
   SHA256 =  2731df97e41766cc617548c5a8267718fdef1f509ac6bafa01e745abea2bdfaa Mo_sv/POTCAR          
   COPYR  = (c) Copyright 02Feb2006 Georg Kresse                                                    
   COPYR  = This file is part of the software VASP. Any use, copying, and all other rights are regul
   COPYR  = If you do not have a valid VASP license, you may not use, copy or distribute this file. 
   VRHFIN =Mo: 4p5s4d                                                                               
   LEXCH  = PE                                                                                      
   EATOM  =  1862.2866 eV,  136.8742 Ry                                                             
                                                                                                    
   TITEL  = PAW_PBE Mo_sv 02Feb2006                                                                 
   LULTRA =        F    use ultrasoft PP ?                                                          
   IUNSCR =        1    unscreen: 0-lin 1-nonlin 2-no                                               
   RPACOR =    2.200    partial core radius                                                         
   POMASS =   95.940; ZVAL   =   14.000    mass and valenz                                          
   RCORE  =    2.500    outmost cutoff radius                                                       
   RWIGS  =    2.750; RWIGS  =    1.455    wigner-seitz radius (au A)                               
   ENMAX  =  242.676; ENMIN  =  182.007 eV                                                          
   ICORE  =        3    local potential                                                             
   LCOR   =        T    correct aug charges                                                         
   LPAW   =        T    paw PP                                                                      
   EAUG   =  446.014                                                                                
   DEXC   =    0.000                                                                                
   RMAX   =    2.563    core radius for proj-oper                                                   
   RAUG   =    1.300    factor for augmentation sphere                                              
   RDEP   =    2.641    radius for radial grids                                                     
   RDEPT  =    2.031    core radius for aug-charge                                                  
                                                                                                    
   Atomic configuration                                                                             
   11 entries                                                                                       
     n  l   j            E        occ.                                                              
     1  0  0.50    -19819.0341   2.0000                                                             
     2  0  0.50     -2799.0127   2.0000                                                             
     2  1  1.50     -2502.0276   6.0000                                                             
     3  0  0.50      -476.4449   2.0000                                                             
     3  1  1.50      -379.1496   6.0000                                                             
     3  2  2.50      -220.9367  10.0000                                                             
     4  0  0.50       -64.3378   2.0000                                                             
     5  0  0.50        -4.0862   1.0000                                                             
     4  1  1.50       -38.4773   6.0000                                                             
     4  2  2.50        -3.7535   5.0000                                                             
     4  3  2.50        -1.3606   0.0000                                                             
   Description                                                                                      
     l       E           TYP  RCUT    TYP  RCUT                                                     
     0    -64.3377829     23  2.100                                                                 
     0     -4.0861640     23  2.400                                                                 
     1    -38.4772993     23  2.100                                                                 
     1     13.6058260     23  2.100                                                                 
     2     -3.7534941     23  2.400                                                                 
     2     -5.1140767     23  2.400                                                                 
     3     -4.0817478     23  2.500                                                                 
  local pseudopotential read in
  partial core-charges read in
  partial kinetic energy density read in
  atomic valenz-charges read in
  non local Contribution for L=           0  read in
    real space projection operators read in
  non local Contribution for L=           0  read in
    real space projection operators read in
  non local Contribution for L=           1  read in
    real space projection operators read in
  non local Contribution for L=           1  read in
    real space projection operators read in
  non local Contribution for L=           2  read in
    real space projection operators read in
  non local Contribution for L=           2  read in
    real space projection operators read in
    PAW grid and wavefunctions read in
 
   number of l-projection  operators is LMAX  =           6
   number of lm-projection operators is LMMAX =          18
 
 POTCAR:    PAW_PBE Ta_pv 07Sep2000               
   SHA256 =  00d0a14a36c127416459414afb8617d9754996fffa60a2465888e660b20a452f Ta_pv/POTCAR          
   COPYR  = (c) Copyright 07Sep2000 Georg Kresse                                                    
   COPYR  = This file is part of the software VASP. Any use, copying, and all other rights are regul
   COPYR  = If you do not have a valid VASP license, you may not use, copy or distribute this file. 
   VRHFIN =Ta:  5p6s5d                                                                              
   LEXCH  = PE                                                                                      
   EATOM  =  1047.1984 eV,   76.9669 Ry                                                             
                                                                                                    
   TITEL  = PAW_PBE Ta_pv 07Sep2000                                                                 
   LULTRA =        F    use ultrasoft PP ?                                                          
   IUNSCR =        1    unscreen: 0-lin 1-nonlin 2-no                                               
   RPACOR =    2.330    partial core radius                                                         
   POMASS =  180.948; ZVAL   =   11.000    mass and valenz                                          
   RCORE  =    2.500    outmost cutoff radius                                                       
   RWIGS  =    2.840; RWIGS  =    1.503    wigner-seitz radius (au A)                               
   ENMAX  =  223.667; ENMIN  =  167.750 eV                                                          
   RCLOC  =    2.205    cutoff for local pot                                                        
   LCOR   =        T    correct aug charges                                                         
   LPAW   =        T    paw PP                                                                      
   EAUG   =  377.421                                                                                
   DEXC   =    0.000                                                                                
   RMAX   =    2.551    core radius for proj-oper                                                   
   RAUG   =    1.300    factor for augmentation sphere                                              
   RDEP   =    2.526    radius for radial grids                                                     
   RDEPT  =    2.132    core radius for aug-charge                                                  
                                                                                                    
   Atomic configuration                                                                             
   15 entries                                                                                       
     n  l   j            E        occ.                                                              
     1  0  0.50    -67341.2801   2.0000                                                             
     2  0  0.50    -11566.9369   2.0000                                                             
     2  1  1.50    -10134.1175   6.0000                                                             
     3  0  0.50     -2648.5614   2.0000                                                             
     3  1  1.50     -2222.6006   6.0000                                                             
     3  2  2.50     -1726.3114  10.0000                                                             
     4  0  0.50      -538.6957   2.0000                                                             
     4  1  1.50      -399.0125   6.0000                                                             
     4  2  2.50      -220.3955  10.0000                                                             
     4  3  3.50       -23.0371  14.0000                                                             
     5  0  0.50       -71.2900   2.0000                                                             
     5  1  1.50       -37.8224   6.0000                                                             
     5  2  2.50        -2.6455   4.0000                                                             
     6  0  0.50        -4.9623   1.0000                                                             
     5  3  2.50        -1.3606   0.0000                                                             
   Description                                                                                      
     l       E           TYP  RCUT    TYP  RCUT                                                     
     1    -37.8224449     23  2.500                                                                 
     1      1.3605826     23  2.500                                                                 
     2     -2.6454718     23  2.500                                                                 
     2     -0.6258570     23  2.500                                                                 
     0     -4.9622674     23  2.500                                                                 
     0      4.7531427     23  2.500                                                                 
  local pseudopotential read in
  partial core-charges read in
  partial kinetic energy density read in
  atomic valenz-charges read in
  non local Contribution for L=           1  read in
    real space projection operators read in
  non local Contribution for L=           1  read in
    real space projection operators read in
  non local Contribution for L=           2  read in
    real space projection operators read in
  non local Contribution for L=           2  read in
    real space projection operators read in
  non local Contribution for L=           0  read in
    real space projection operators read in
  non local Contribution for L=           0  read in
    real space projection operators read in
    PAW grid and wavefunctions read in
 
   number of l-projection  operators is LMAX  =           6
   number of lm-projection operators is LMMAX =          18
 
 POTCAR:    PAW_PBE W_sv 04Sep2015                
   SHA256 =  931c2d770f65867ef30f3db3421922900fc0890ebac5c3e12f63b6a2064023d7 W_sv/POTCAR           
   COPYR  = (c) Copyright 04Sep2015 Georg Kresse                                                    
   COPYR  = This file is part of the software VASP. Any use, copying, and all other rights are regul
   COPYR  = If you do not have a valid VASP license, you may not use, copy or distribute this file. 
   VRHFIN =W : 5p6s5d                                                                               
   LEXCH  = PE                                                                                      
   EATOM  =  1865.5791 eV,  137.1162 Ry                                                             
                                                                                                    
   TITEL  = PAW_PBE W_sv 04Sep2015                                                                  
   LULTRA =        F    use ultrasoft PP ?                                                          
   IUNSCR =        1    unscreen: 0-lin 1-nonlin 2-no                                               
   RPACOR =    2.330    partial core radius                                                         
   POMASS =  183.850; ZVAL   =   14.000    mass and valenz                                          
   RCORE  =    2.500    outmost cutoff radius                                                       
   RWIGS  =    2.750; RWIGS  =    1.455    wigner-seitz radius (au A)                               
   ENMAX  =  223.057; ENMIN  =  167.293 eV                                                          
   ICORE  =        3    local potential                                                             
   LCOR   =        T    correct aug charges                                                         
   LPAW   =        T    paw PP                                                                      
   EAUG   =  373.438                                                                                
   DEXC   =    0.000                                                                                
   RMAX   =    2.565    core radius for proj-oper                                                   
   RAUG   =    1.300    factor for augmentation sphere                                              
   RDEP   =    2.539    radius for radial grids                                                     
   RDEPT  =    2.126    core radius for aug-charge                                                  
                                                                                                    
   Atomic configuration                                                                             
   15 entries                                                                                       
     n  l   j            E        occ.                                                              
     1  0  0.50    -69465.5834   2.0000                                                             
     2  0  0.50    -11986.2640   2.0000                                                             
     2  1  1.50    -10479.8613   6.0000                                                             
     3  0  0.50     -2759.0756   2.0000                                                             
     3  1  1.50     -2313.1855   6.0000                                                             
     3  2  2.50     -1801.1183  10.0000                                                             
     4  0  0.50      -567.6789   2.0000                                                             
     4  1  1.50      -421.4692   6.0000                                                             
     4  2  2.50      -236.3471  10.0000                                                             
     4  3  3.50       -31.2665  14.0000                                                             
     5  0  0.50       -77.1084   2.0000                                                             
     6  0  0.50        -5.1438   1.0000                                                             
     5  1  1.50       -41.3856   6.0000                                                             
     5  2  2.50        -3.3185   5.0000                                                             
     5  3  2.50        -1.3606   0.0000                                                             
   Description                                                                                      
     l       E           TYP  RCUT    TYP  RCUT                                                     
     0    -77.1084470     23  2.100                                                                 
     0     -5.1437956     23  2.300                                                                 
     1    -41.3855615     23  2.500                                                                 
     1     -2.7211652     23  2.500                                                                 
     2     -3.3185025     23  2.500                                                                 
     2     -1.5965151     23  2.500                                                                 
     3     -1.3605826     23  2.500                                                                 
  local pseudopotential read in
  partial core-charges read in
  partial kinetic energy density read in
  kinetic energy density of atom read in
  atomic valenz-charges read in
  non local Contribution for L=           0  read in
    real space projection operators read in
  non local Contribution for L=           0  read in
    real space projection operators read in
  non local Contribution for L=           1  read in
    real space projection operators read in
  non local Contribution for L=           1  read in
    real space projection operators read in
  non local Contribution for L=           2  read in
    real space projection operators read in
  non local Contribution for L=           2  read in
    real space projection operators read in
    PAW grid and wavefunctions read in
 
   number of l-projection  operators is LMAX  =           6
   number of lm-projection operators is LMMAX =          18
 
  PAW_PBE Nb_sv 25May2007               :
 energy of atom  1       EATOM=-1555.1913
 kinetic energy error for atom=    0.2155 (will be added to EATOM!!)
  PAW_PBE Mo_sv 02Feb2006               :
 energy of atom  2       EATOM=-1862.2866
 kinetic energy error for atom=    0.1102 (will be added to EATOM!!)
  PAW_PBE Ta_pv 07Sep2000               :
 energy of atom  3       EATOM=-1047.1984
 kinetic energy error for atom=    0.0394 (will be added to EATOM!!)
  PAW_PBE W_sv 04Sep2015                :
 energy of atom  4       EATOM=-1865.5791
 kinetic energy error for atom=    0.0589 (will be added to EATOM!!)
 
 
 POSCAR: Nb-Mo-Ta-W alloy
  positions in direct lattice
  No initial velocities read in
 exchange correlation table for  LEXCH =        8
   RHO(1)=    0.500       N(1)  =     2000
   RHO(2)=  100.500       N(2)  =     4000
 


--------------------------------------------------------------------------------------------------------


 ion  position               nearest neighbor table
   1  0.000  0.000  0.000-   3 2.85   5 2.85   9 2.85  10 2.85  11 2.85  13 2.85  15 2.85  16 2.85
                             8 3.29   8 3.29
   2  0.500  0.000  0.500-   3 2.85   5 2.85   9 2.85  10 2.85  11 2.85  13 2.85  15 2.85  16 2.85
                             7 3.29   8 3.29   8 3.29   7 3.29
   3  0.250  0.250  0.250-   1 2.85   2 2.85   4 2.85   6 2.85   7 2.85   8 2.85  12 2.85  14 2.85
                             9 3.29  11 3.29  11 3.29   9 3.29
   4  0.000  0.000  0.500-   3 2.85   5 2.85   9 2.85  10 2.85  11 2.85  13 2.85  15 2.85  16 2.85
                            12 3.29  12 3.29
   5  0.750  0.750  0.750-   1 2.85   2 2.85   4 2.85   6 2.85   7 2.85   8 2.85  12 2.85  14 2.85
                            13 3.29  10 3.29  16 3.29  16 3.29  10 3.29  13 3.29
   6  0.500  0.500  0.000-   3 2.85   5 2.85   9 2.85  10 2.85  11 2.85  13 2.85  15 2.85  16 2.85
                            14 3.29   7 3.29   8 3.29   7 3.29   8 3.29  14 3.29
   7  0.500  0.500  0.500-   3 2.85   5 2.85   9 2.85  10 2.85  11 2.85  13 2.85  15 2.85  16 2.85
                             6 3.29   2 3.29  12 3.29   6 3.29   2 3.29  12 3.29
   8  0.500  0.000  0.000-   3 2.85   5 2.85   9 2.85  10 2.85  11 2.85  13 2.85  15 2.85  16 2.85
                             1 3.29   2 3.29   6 3.29   2 3.29   6 3.29   1 3.29
   9  0.750  0.250  0.250-   1 2.85   2 2.85   4 2.85   6 2.85   7 2.85   8 2.85  12 2.85  14 2.85
                             3 3.29  10 3.29  16 3.29  10 3.29  16 3.29   3 3.29
  10  0.750  0.250  0.750-   1 2.85   2 2.85   4 2.85   6 2.85   7 2.85   8 2.85  12 2.85  14 2.85
                            11 3.29   5 3.29   9 3.29   9 3.29   5 3.29  11 3.29
  11  0.250  0.250  0.750-   1 2.85   2 2.85   4 2.85   6 2.85   7 2.85   8 2.85  12 2.85  14 2.85
                             3 3.29  13 3.29  10 3.29   3 3.29  13 3.29  10 3.29
  12  0.000  0.500  0.500-   3 2.85   5 2.85   9 2.85  10 2.85  11 2.85  13 2.85  15 2.85  16 2.85
                            14 3.29   4 3.29   7 3.29  14 3.29   4 3.29   7 3.29
  13  0.250  0.750  0.750-   1 2.85   2 2.85   4 2.85   6 2.85   7 2.85   8 2.85  12 2.85  14 2.85
                             5 3.29  11 3.29  15 3.29  15 3.29  11 3.29   5 3.29
  14  0.000  0.500  0.000-   3 2.85   5 2.85   9 2.85  10 2.85  11 2.85  13 2.85  15 2.85  16 2.85
                            12 3.29   6 3.29  12 3.29   6 3.29
  15  0.250  0.750  0.250-   1 2.85   2 2.85   4 2.85   6 2.85   7 2.85   8 2.85  12 2.85  14 2.85
                            13 3.29  16 3.29  13 3.29  16 3.29
  16  0.750  0.750  0.250-   1 2.85   2 2.85   4 2.85   6 2.85   7 2.85   8 2.85  12 2.85  14 2.85
                             5 3.29   9 3.29  15 3.29   5 3.29   9 3.29  15 3.29
 
  LATTYP: Found a simple cubic cell.
 ALAT       =     6.5800000000
  
  Lattice vectors:
  
 A1 = (   6.5800000000,   0.0000000000,   0.0000000000)
 A2 = (   0.0000000000,   6.5800000000,   0.0000000000)
 A3 = (   0.0000000000,   0.0000000000,   6.5800000000)


Analysis of symmetry for initial positions (statically):
=====================================================================
 Subroutine PRICEL returns:
 Original cell was already a primitive cell.
 

 Routine SETGRP: Setting up the symmetry group for a 
 simple cubic supercell.


 Subroutine GETGRP returns: Found  1 space group operations
 (whereof  1 operations were pure point group operations)
 out of a pool of 48 trial point group operations.


The static configuration has the point symmetry C_1 .


Analysis of symmetry for dynamics (positions and initial velocities):
=====================================================================
 Subroutine PRICEL returns:
 Original cell was already a primitive cell.
 

 Routine SETGRP: Setting up the symmetry group for a 
 simple cubic supercell.


 Subroutine GETGRP returns: Found  1 space group operations
 (whereof  1 operations were pure point group operations)
 out of a pool of 48 trial point group operations.


The dynamic configuration has the point symmetry C_1 .


 Subroutine INISYM returns: Found  1 space group operations
 (whereof  1 operations are pure point group operations),
 and found     1 'primitive' translations


----------------------------------------------------------------------------------------

                                     Primitive cell                                     

  volume of cell :     284.8903

  direct lattice vectors                    reciprocal lattice vectors
     6.580000000  0.000000000  0.000000000     0.151975684  0.000000000  0.000000000
     0.000000000  6.580000000  0.000000000     0.000000000  0.151975684  0.000000000
     0.000000000  0.000000000  6.580000000     0.000000000  0.000000000  0.151975684

  length of vectors
     6.580000000  6.580000000  6.580000000     0.151975684  0.151975684  0.151975684

  position of ions in fractional coordinates (direct lattice)
     0.000000000  0.000000000  0.000000000
     0.500000000  0.000000000  0.500000000
     0.250000000  0.250000000  0.250000000
     0.000000000  0.000000000  0.500000000
     0.750000000  0.750000000  0.750000000
     0.500000000  0.500000000  0.000000000
     0.500000000  0.500000000  0.500000000
     0.500000000  0.000000000  0.000000000
     0.750000000  0.250000000  0.250000000
     0.750000000  0.250000000  0.750000000
     0.250000000  0.250000000  0.750000000
     0.000000000  0.500000000  0.500000000
     0.250000000  0.750000000  0.750000000
     0.000000000  0.500000000  0.000000000
     0.250000000  0.750000000  0.250000000
     0.750000000  0.750000000  0.250000000

  ion indices of the primitive-cell ions
   primitive index   ion index
                 1           1
                 2           2
                 3           3
                 4           4
                 5           5
                 6           6
                 7           7
                 8           8
                 9           9
                10          10
                11          11
                12          12
                13          13
                14          14
                15          15
                16          16

----------------------------------------------------------------------------------------

 
 
 KPOINTS: K-Spacing Value to Generate K-Mesh: 0.03

Automatic generation of k-mesh.
 Grid dimensions read from file:
 generate k-points for:    5    5    5

 Generating k-lattice:

  Cartesian coordinates                     Fractional coordinates (reciprocal lattice)
     0.030395137  0.000000000  0.000000000     0.200000000  0.000000000  0.000000000
     0.000000000  0.030395137  0.000000000     0.000000000  0.200000000  0.000000000
     0.000000000  0.000000000  0.030395137     0.000000000  0.000000000  0.200000000

  Length of vectors
     0.030395137  0.030395137  0.030395137

  Shift w.r.t. Gamma in fractional coordinates (k-lattice)
     0.000000000  0.000000000  0.000000000

 
 Subroutine IBZKPT returns following result:
 ===========================================
 
 Found     63 irreducible k-points:
 
 Following reciprocal coordinates:
            Coordinates               Weight
  0.000000  0.000000  0.000000      1.000000
  0.200000  0.000000  0.000000      2.000000
  0.000000  0.200000  0.000000      2.000000
  0.000000  0.000000  0.200000      2.000000
  0.400000  0.000000  0.000000      2.000000
  0.000000  0.400000  0.000000      2.000000
  0.000000  0.000000  0.400000      2.000000
  0.200000  0.200000  0.000000      2.000000
  0.000000  0.200000  0.200000      2.000000
  0.200000  0.000000  0.200000      2.000000
 -0.200000  0.200000  0.000000      2.000000
 -0.200000  0.000000  0.200000      2.000000
  0.000000 -0.200000  0.200000      2.000000
  0.400000  0.200000  0.000000      2.000000
  0.000000  0.400000  0.200000      2.000000
  0.200000  0.000000  0.400000      2.000000
 -0.200000  0.400000  0.000000      2.000000
 -0.400000  0.000000  0.200000      2.000000
  0.000000  0.200000  0.400000      2.000000
  0.000000 -0.400000  0.200000      2.000000
 -0.200000  0.000000  0.400000      2.000000
  0.400000  0.000000  0.200000      2.000000
  0.000000 -0.200000  0.400000      2.000000
  0.400000 -0.200000  0.000000      2.000000
  0.200000  0.400000  0.000000      2.000000
  0.400000  0.400000  0.000000      2.000000
  0.000000  0.400000  0.400000      2.000000
  0.400000  0.000000  0.400000      2.000000
 -0.400000  0.400000  0.000000      2.000000
 -0.400000  0.000000  0.400000      2.000000
  0.000000 -0.400000  0.400000      2.000000
  0.200000  0.200000  0.200000      2.000000
 -0.200000  0.200000  0.200000      2.000000
 -0.200000 -0.200000  0.200000      2.000000
  0.200000 -0.200000  0.200000      2.000000
  0.400000  0.200000  0.200000      2.000000
  0.200000  0.400000  0.200000      2.000000
  0.200000  0.200000  0.400000      2.000000
 -0.200000  0.400000  0.200000      2.000000
 -0.400000  0.200000  0.200000      2.000000
 -0.200000  0.200000  0.400000      2.000000
 -0.400000 -0.200000  0.200000      2.000000
 -0.200000 -0.400000  0.200000      2.000000
 -0.200000 -0.200000  0.400000      2.000000
  0.200000 -0.400000  0.200000      2.000000
  0.400000 -0.200000  0.200000      2.000000
  0.200000 -0.200000  0.400000      2.000000
  0.400000  0.400000  0.200000      2.000000
  0.200000  0.400000  0.400000      2.000000
  0.400000  0.200000  0.400000      2.000000
 -0.400000  0.400000  0.200000      2.000000
 -0.400000  0.200000  0.400000      2.000000
 -0.200000  0.400000  0.400000      2.000000
 -0.400000 -0.400000  0.200000      2.000000
 -0.200000 -0.400000  0.400000      2.000000
 -0.400000 -0.200000  0.400000      2.000000
  0.400000 -0.400000  0.200000      2.000000
  0.400000 -0.200000  0.400000      2.000000
  0.200000 -0.400000  0.400000      2.000000
  0.400000  0.400000  0.400000      2.000000
 -0.400000  0.400000  0.400000      2.000000
 -0.400000 -0.400000  0.400000      2.000000
  0.400000 -0.400000  0.400000      2.000000
 
 Following cartesian coordinates:
            Coordinates               Weight
  0.000000  0.000000  0.000000      1.000000
  0.030395  0.000000  0.000000      2.000000
  0.000000  0.030395  0.000000      2.000000
  0.000000  0.000000  0.030395      2.000000
  0.060790  0.000000  0.000000      2.000000
  0.000000  0.060790  0.000000      2.000000
  0.000000  0.000000  0.060790      2.000000
  0.030395  0.030395  0.000000      2.000000
  0.000000  0.030395  0.030395      2.000000
  0.030395  0.000000  0.030395      2.000000
 -0.030395  0.030395  0.000000      2.000000
 -0.030395  0.000000  0.030395      2.000000
  0.000000 -0.030395  0.030395      2.000000
  0.060790  0.030395  0.000000      2.000000
  0.000000  0.060790  0.030395      2.000000
  0.030395  0.000000  0.060790      2.000000
 -0.030395  0.060790  0.000000      2.000000
 -0.060790  0.000000  0.030395      2.000000
  0.000000  0.030395  0.060790      2.000000
  0.000000 -0.060790  0.030395      2.000000
 -0.030395  0.000000  0.060790      2.000000
  0.060790  0.000000  0.030395      2.000000
  0.000000 -0.030395  0.060790      2.000000
  0.060790 -0.030395  0.000000      2.000000
  0.030395  0.060790  0.000000      2.000000
  0.060790  0.060790  0.000000      2.000000
  0.000000  0.060790  0.060790      2.000000
  0.060790  0.000000  0.060790      2.000000
 -0.060790  0.060790  0.000000      2.000000
 -0.060790  0.000000  0.060790      2.000000
  0.000000 -0.060790  0.060790      2.000000
  0.030395  0.030395  0.030395      2.000000
 -0.030395  0.030395  0.030395      2.000000
 -0.030395 -0.030395  0.030395      2.000000
  0.030395 -0.030395  0.030395      2.000000
  0.060790  0.030395  0.030395      2.000000
  0.030395  0.060790  0.030395      2.000000
  0.030395  0.030395  0.060790      2.000000
 -0.030395  0.060790  0.030395      2.000000
 -0.060790  0.030395  0.030395      2.000000
 -0.030395  0.030395  0.060790      2.000000
 -0.060790 -0.030395  0.030395      2.000000
 -0.030395 -0.060790  0.030395      2.000000
 -0.030395 -0.030395  0.060790      2.000000
  0.030395 -0.060790  0.030395      2.000000
  0.060790 -0.030395  0.030395      2.000000
  0.030395 -0.030395  0.060790      2.000000
  0.060790  0.060790  0.030395      2.000000
  0.030395  0.060790  0.060790      2.000000
  0.060790  0.030395  0.060790      2.000000
 -0.060790  0.060790  0.030395      2.000000
 -0.060790  0.030395  0.060790      2.000000
 -0.030395  0.060790  0.060790      2.000000
 -0.060790 -0.060790  0.030395      2.000000
 -0.030395 -0.060790  0.060790      2.000000
 -0.060790 -0.030395  0.060790      2.000000
  0.060790 -0.060790  0.030395      2.000000
  0.060790 -0.030395  0.060790      2.000000
  0.030395 -0.060790  0.060790      2.000000
  0.060790  0.060790  0.060790      2.000000
 -0.060790  0.060790  0.060790      2.000000
 -0.060790 -0.060790  0.060790      2.000000
  0.060790 -0.060790  0.060790      2.000000
 


--------------------------------------------------------------------------------------------------------




 Dimension of arrays:
   k-points           NKPTS =     63   k-points in BZ     NKDIM =     63   number of bands    NBANDS=    124
   number of dos      NEDOS =    301   number of ions     NIONS =     16
   non local maximal  LDIM  =      6   non local SUM 2l+1 LMDIM =     18
   total plane-waves  NPLWV =  46656
   max r-space proj   IRMAX =      1   max aug-charges    IRDMAX=   9546
   dimension x,y,z NGX =    36 NGY =   36 NGZ =   36
   dimension x,y,z NGXF=    72 NGYF=   72 NGZF=   72
   support grid    NGXF=    72 NGYF=   72 NGZF=   72
   ions per type =               3   3   5   5
   NGX,Y,Z   is equivalent  to a cutoff of   9.10,  9.10,  9.10 a.u.
   NGXF,Y,Z  is equivalent  to a cutoff of  18.19, 18.19, 18.19 a.u.

 SYSTEM =  unknown system                          
 POSCAR =  Nb-Mo-Ta-W alloy                        

 Startparameter for this run:
   NWRITE =      2    write-flag & timer
   PREC   = accura    normal or accurate (medium, high low for compatibility)
   ISTART =      0    job   : 0-new  1-cont  2-samecut
   ICHARG =      2    charge: 1-file 2-atom 10-const
   ISPIN  =      1    spin polarized calculation?
   LNONCOLLINEAR =      F non collinear calculations
   LSORBIT =      F    spin-orbit coupling
   INIWAV =      1    electr: 0-lowe 1-rand  2-diag
   LASPH  =      F    aspherical Exc in radial PAW
 Electronic Relaxation 1
   ENCUT  =  250.0 eV  18.37 Ry    4.29 a.u.   8.48  8.48  8.48*2*pi/ulx,y,z
   ENINI  =  250.0     initial cutoff
   ENAUG  =  455.7 eV  augmentation charge cutoff
   NELM   =     80;   NELMIN=  2; NELMDL= -5     # of ELM steps 
   EDIFF  = 0.1E-07   stopping-criterion for ELM
   LREAL  =      F    real-space projection
   NLSPLINE    = F    spline interpolate recip. space projectors
   LCOMPAT=      F    compatible to vasp.4.4
   GGA_COMPAT  = T    GGA compatible to vasp.4.4-vasp.4.6
   LMAXPAW     = -100 max onsite density
   LMAXMIX     =    2 max onsite mixed and CHGCAR
   VOSKOWN=      0    Vosko Wilk Nusair interpolation
   ROPT   =    0.00000   0.00000   0.00000   0.00000
 Ionic relaxation
   EDIFFG = -.1E-01   stopping-criterion for IOM
   NSW    =      0    number of steps for IOM
   NBLOCK =      1;   KBLOCK =      1    inner block; outer block 
   IBRION =     -1    ionic relax: 0-MD 1-quasi-New 2-CG
   NFREE  =      0    steps in history (QN), initial steepest desc. (CG)
   ISIF   =      2    stress and relaxation
   IWAVPR =     10    prediction:  0-non 1-charg 2-wave 3-comb
   ISYM   =      2    0-nonsym 1-usesym 2-fastsym
   LCORR  =      T    Harris-Foulkes like correction to forces

   POTIM  = 0.5000    time-step for ionic-motion
   TEIN   =    0.0    initial temperature
   TEBEG  =    0.0;   TEEND  =   0.0 temperature during run
   SMASS  =  -3.00    Nose mass-parameter (am)
   estimated Nose-frequenzy (Omega)   =  0.10E-29 period in steps = 0.13E+47 mass=  -0.989E-27a.u.
   SCALEE = 1.0000    scale energy and forces
   NPACO  =    256;   APACO  = 10.0  distance and # of slots for P.C.
   PSTRESS=    0.0 pullay stress

  Mass of Ions in am
   POMASS =  92.91 95.94180.95183.85
  Ionic Valenz
   ZVAL   =  13.00 14.00 11.00 14.00
  Atomic Wigner-Seitz radii
   RWIGS  =  -1.00 -1.00 -1.00 -1.00
  virtual crystal weights 
   VCA    =   1.00  1.00  1.00  1.00
   NELECT =     206.0000    total number of electrons
   NUPDOWN=      -1.0000    fix difference up-down

 DOS related values:
   EMIN   =  10.00;   EMAX   =-10.00  energy-range for DOS
   EFERMI =   0.00
   ISMEAR =     0;   SIGMA  =   0.02  broadening in eV -4-tet -1-fermi 0-gaus

 Electronic relaxation 2 (details)
   IALGO  =     38    algorithm
   LDIAG  =      T    sub-space diagonalisation (order eigenvalues)
   LSUBROT=      F    optimize rotation matrix (better conditioning)
   TURBO    =      0    0=normal 1=particle mesh
   IRESTART =      0    0=no restart 2=restart with 2 vectors
   NREBOOT  =      0    no. of reboots
   NMIN     =      0    reboot dimension
   EREF     =   0.00    reference energy to select bands
   IMIX   =      4    mixing-type and parameters
     AMIX     =   0.40;   BMIX     =  1.00
     AMIX_MAG =   1.60;   BMIX_MAG =  1.00
     AMIN     =   0.10
     WC   =   100.;   INIMIX=   1;  MIXPRE=   1;  MAXMIX= -45

 Intra band minimization:
   WEIMIN = 0.0000     energy-eigenvalue tresh-hold
   EBREAK =  0.20E-10  absolut break condition
   DEPER  =   0.30     relativ break condition  

   TIME   =   0.40     timestep for ELM

  volume/ion in A,a.u.               =      17.81       120.16
  Fermi-wavevector in a.u.,A,eV,Ry     =   1.469393  2.776750 29.376560  2.159116
  Thomas-Fermi vector in A             =   2.584776
 
 Write flags
   LWAVE        =      F    write WAVECAR
   LDOWNSAMPLE  =      F    k-point downsampling of WAVECAR
   LCHARG       =      F    write CHGCAR
   LVTOT        =      F    write LOCPOT, total local potential
   LVHAR        =      F    write LOCPOT, Hartree potential only
   LELF         =      F    write electronic localiz. function (ELF)
   LORBIT       =      0    0 simple, 1 ext, 2 COOP (PROOUT), +10 PAW based schemes


 Dipole corrections
   LMONO  =      F    monopole corrections only (constant potential shift)
   LDIPOL =      F    correct potential (dipole corrections)
   IDIPOL =      0    1-x, 2-y, 3-z, 4-all directions 
   EPSILON=  1.0000000 bulk dielectric constant

 Core level calculations are selected ICORELEVEL =  1
 Exchange correlation treatment:
   GGA     =    PE    GGA type
   LEXCH   =     8    internal setting for exchange type
   LIBXC   =     F    Libxc                    
   VOSKOWN =     0    Vosko Wilk Nusair interpolation
   LHFCALC =     F    Hartree Fock is set to
   LHFONE  =     F    Hartree Fock one center treatment
   AEXX    =    0.0000 exact exchange contribution

 Linear response parameters
   LEPSILON=     F    determine dielectric tensor
   LRPA    =     F    only Hartree local field effects (RPA)
   LNABLA  =     F    use nabla operator in PAW spheres
   LVEL    =     F    velocity operator in full k-point grid
   CSHIFT  =0.1000    complex shift for real part using Kramers Kronig
   OMEGAMAX=  -1.0    maximum frequency
   DEG_THRESHOLD= 0.2000000E-02 threshold for treating states as degnerate
   RTIME   =   -0.100 relaxation time in fs
  (WPLASMAI=    0.000 imaginary part of plasma frequency in eV, 0.658/RTIME)
   DFIELD  = 0.0000000 0.0000000 0.0000000 field for delta impulse in time
 
  Optional k-point grid parameters
   LKPOINTS_OPT  =     F    use optional k-point grid
   KPOINTS_OPT_MODE=     1    mode for optional k-point grid
 
 Orbital magnetization related:
   ORBITALMAG=     F  switch on orbital magnetization
   LCHIMAG   =     F  perturbation theory with respect to B field
   DQ        =  0.001000  dq finite difference perturbation B field
   LLRAUG    =     F  two centre corrections for induced B field



--------------------------------------------------------------------------------------------------------


 Static calculation
 charge density and potential will be updated during run
 non-spin polarized calculation
 Variant of blocked Davidson
 Davidson routine will perform the subspace rotation
 perform sub-space diagonalisation
    after iterative eigenvector-optimisation
 modified Broyden-mixing scheme, WC =      100.0
 initial mixing is a Kerker type mixing with AMIX =  0.4000 and BMIX =      1.0000
 Hartree-type preconditioning will be used
 using additional bands           21
 reciprocal scheme for non local part
 use partial core corrections
 calculate Harris-corrections to forces 
   (improved forces if not selfconsistent)
 use gradient corrections 
 use of overlap-Matrix (Vanderbilt PP)
 Gauss-broadening in eV      SIGMA  =   0.02


--------------------------------------------------------------------------------------------------------


  energy-cutoff  :      250.00
  volume of cell :      284.89
      direct lattice vectors                 reciprocal lattice vectors
     6.580000000  0.000000000  0.000000000     0.151975684  0.000000000  0.000000000
     0.000000000  6.580000000  0.000000000     0.000000000  0.151975684  0.000000000
     0.000000000  0.000000000  6.580000000     0.000000000  0.000000000  0.151975684

  length of vectors
     6.580000000  6.580000000  6.580000000     0.151975684  0.151975684  0.151975684


 
 k-points in units of 2pi/SCALE and weight: K-Spacing Value to Generate K-Mesh: 0.03
   0.00000000  0.00000000  0.00000000       0.008
   0.03039514  0.00000000  0.00000000       0.016
   0.00000000  0.03039514  0.00000000       0.016
   0.00000000  0.00000000  0.03039514       0.016
   0.06079027  0.00000000  0.00000000       0.016
   0.00000000  0.06079027  0.00000000       0.016
   0.00000000  0.00000000  0.06079027       0.016
   0.03039514  0.03039514  0.00000000       0.016
   0.00000000  0.03039514  0.03039514       0.016
   0.03039514  0.00000000  0.03039514       0.016
  -0.03039514  0.03039514  0.00000000       0.016
  -0.03039514  0.00000000  0.03039514       0.016
   0.00000000 -0.03039514  0.03039514       0.016
   0.06079027  0.03039514  0.00000000       0.016
   0.00000000  0.06079027  0.03039514       0.016
   0.03039514  0.00000000  0.06079027       0.016
  -0.03039514  0.06079027  0.00000000       0.016
  -0.06079027  0.00000000  0.03039514       0.016
   0.00000000  0.03039514  0.06079027       0.016
   0.00000000 -0.06079027  0.03039514       0.016
  -0.03039514  0.00000000  0.06079027       0.016
   0.06079027  0.00000000  0.03039514       0.016
   0.00000000 -0.03039514  0.06079027       0.016
   0.06079027 -0.03039514  0.00000000       0.016
   0.03039514  0.06079027  0.00000000       0.016
   0.06079027  0.06079027  0.00000000       0.016
   0.00000000  0.06079027  0.06079027       0.016
   0.06079027  0.00000000  0.06079027       0.016
  -0.06079027  0.06079027  0.00000000       0.016
  -0.06079027  0.00000000  0.06079027       0.016
   0.00000000 -0.06079027  0.06079027       0.016
   0.03039514  0.03039514  0.03039514       0.016
  -0.03039514  0.03039514  0.03039514       0.016
  -0.03039514 -0.03039514  0.03039514       0.016
   0.03039514 -0.03039514  0.03039514       0.016
   0.06079027  0.03039514  0.03039514       0.016
   0.03039514  0.06079027  0.03039514       0.016
   0.03039514  0.03039514  0.06079027       0.016
  -0.03039514  0.06079027  0.03039514       0.016
  -0.06079027  0.03039514  0.03039514       0.016
  -0.03039514  0.03039514  0.06079027       0.016
  -0.06079027 -0.03039514  0.03039514       0.016
  -0.03039514 -0.06079027  0.03039514       0.016
  -0.03039514 -0.03039514  0.06079027       0.016
   0.03039514 -0.06079027  0.03039514       0.016
   0.06079027 -0.03039514  0.03039514       0.016
   0.03039514 -0.03039514  0.06079027       0.016
   0.06079027  0.06079027  0.03039514       0.016
   0.03039514  0.06079027  0.06079027       0.016
   0.06079027  0.03039514  0.06079027       0.016
  -0.06079027  0.06079027  0.03039514       0.016
  -0.06079027  0.03039514  0.06079027       0.016
  -0.03039514  0.06079027  0.06079027       0.016
  -0.06079027 -0.06079027  0.03039514       0.016
  -0.03039514 -0.06079027  0.06079027       0.016
  -0.06079027 -0.03039514  0.06079027       0.016
   0.06079027 -0.06079027  0.03039514       0.016
   0.06079027 -0.03039514  0.06079027       0.016
   0.03039514 -0.06079027  0.06079027       0.016
   0.06079027  0.06079027  0.06079027       0.016
  -0.06079027  0.06079027  0.06079027       0.016
  -0.06079027 -0.06079027  0.06079027       0.016
   0.06079027 -0.06079027  0.06079027       0.016
 
 k-points in reciprocal lattice and weights: K-Spacing Value to Generate K-Mesh: 0.03
   0.00000000  0.00000000  0.00000000       0.008
   0.20000000  0.00000000  0.00000000       0.016
   0.00000000  0.20000000  0.00000000       0.016
   0.00000000  0.00000000  0.20000000       0.016
   0.40000000  0.00000000  0.00000000       0.016
   0.00000000  0.40000000  0.00000000       0.016
   0.00000000  0.00000000  0.40000000       0.016
   0.20000000  0.20000000  0.00000000       0.016
   0.00000000  0.20000000  0.20000000       0.016
   0.20000000  0.00000000  0.20000000       0.016
  -0.20000000  0.20000000  0.00000000       0.016
  -0.20000000  0.00000000  0.20000000       0.016
   0.00000000 -0.20000000  0.20000000       0.016
   0.40000000  0.20000000  0.00000000       0.016
   0.00000000  0.40000000  0.20000000       0.016
   0.20000000  0.00000000  0.40000000       0.016
  -0.20000000  0.40000000  0.00000000       0.016
  -0.40000000  0.00000000  0.20000000       0.016
   0.00000000  0.20000000  0.40000000       0.016
   0.00000000 -0.40000000  0.20000000       0.016
  -0.20000000  0.00000000  0.40000000       0.016
   0.40000000  0.00000000  0.20000000       0.016
   0.00000000 -0.20000000  0.40000000       0.016
   0.40000000 -0.20000000  0.00000000       0.016
   0.20000000  0.40000000  0.00000000       0.016
   0.40000000  0.40000000  0.00000000       0.016
   0.00000000  0.40000000  0.40000000       0.016
   0.40000000  0.00000000  0.40000000       0.016
  -0.40000000  0.40000000  0.00000000       0.016
  -0.40000000  0.00000000  0.40000000       0.016
   0.00000000 -0.40000000  0.40000000       0.016
   0.20000000  0.20000000  0.20000000       0.016
  -0.20000000  0.20000000  0.20000000       0.016
  -0.20000000 -0.20000000  0.20000000       0.016
   0.20000000 -0.20000000  0.20000000       0.016
   0.40000000  0.20000000  0.20000000       0.016
   0.20000000  0.40000000  0.20000000       0.016
   0.20000000  0.20000000  0.40000000       0.016
  -0.20000000  0.40000000  0.20000000       0.016
  -0.40000000  0.20000000  0.20000000       0.016
  -0.20000000  0.20000000  0.40000000       0.016
  -0.40000000 -0.20000000  0.20000000       0.016
  -0.20000000 -0.40000000  0.20000000       0.016
  -0.20000000 -0.20000000  0.40000000       0.016
   0.20000000 -0.40000000  0.20000000       0.016
   0.40000000 -0.20000000  0.20000000       0.016
   0.20000000 -0.20000000  0.40000000       0.016
   0.40000000  0.40000000  0.20000000       0.016
   0.20000000  0.40000000  0.40000000       0.016
   0.40000000  0.20000000  0.40000000       0.016
  -0.40000000  0.40000000  0.20000000       0.016
  -0.40000000  0.20000000  0.40000000       0.016
  -0.20000000  0.40000000  0.40000000       0.016
  -0.40000000 -0.40000000  0.20000000       0.016
  -0.20000000 -0.40000000  0.40000000       0.016
  -0.40000000 -0.20000000  0.40000000       0.016
   0.40000000 -0.40000000  0.20000000       0.016
   0.40000000 -0.20000000  0.40000000       0.016
   0.20000000 -0.40000000  0.40000000       0.016
   0.40000000  0.40000000  0.40000000       0.016
  -0.40000000  0.40000000  0.40000000       0.016
  -0.40000000 -0.40000000  0.40000000       0.016
   0.40000000 -0.40000000  0.40000000       0.016
 
 position of ions in fractional coordinates (direct lattice) 
   0.00000000  0.00000000  0.00000000
   0.50000000  0.00000000  0.50000000
   0.25000000  0.25000000  0.25000000
   0.00000000  0.00000000  0.50000000
   0.75000000  0.75000000  0.75000000
   0.50000000  0.50000000  0.00000000
   0.50000000  0.50000000  0.50000000
   0.50000000  0.00000000  0.00000000
   0.75000000  0.25000000  0.25000000
   0.75000000  0.25000000  0.75000000
   0.25000000  0.25000000  0.75000000
   0.00000000  0.50000000  0.50000000
   0.25000000  0.75000000  0.75000000
   0.00000000  0.50000000  0.00000000
   0.25000000  0.75000000  0.25000000
   0.75000000  0.75000000  0.25000000
 
 position of ions in cartesian coordinates  (Angst):
   0.00000000  0.00000000  0.00000000
   3.29000000  0.00000000  3.29000000
   1.64500000  1.64500000  1.64500000
   0.00000000  0.00000000  3.29000000
   4.93500000  4.93500000  4.93500000
   3.29000000  3.29000000  0.00000000
   3.29000000  3.29000000  3.29000000
   3.29000000  0.00000000  0.00000000
   4.93500000  1.64500000  1.64500000
   4.93500000  1.64500000  4.93500000
   1.64500000  1.64500000  4.93500000
   0.00000000  3.29000000  3.29000000
   1.64500000  4.93500000  4.93500000
   0.00000000  3.29000000  0.00000000
   1.64500000  4.93500000  1.64500000
   4.93500000  4.93500000  1.64500000
 


--------------------------------------------------------------------------------------------------------


 k-point   1 :   0.0000 0.0000 0.0000  plane waves:    2517
 k-point   2 :   0.2000 0.0000 0.0000  plane waves:    2545
 k-point   3 :   0.0000 0.2000 0.0000  plane waves:    2545
 k-point   4 :   0.0000 0.0000 0.2000  plane waves:    2545
 k-point   5 :   0.4000 0.0000 0.0000  plane waves:    2569
 k-point   6 :   0.0000 0.4000 0.0000  plane waves:    2569
 k-point   7 :   0.0000 0.0000 0.4000  plane waves:    2569
 k-point   8 :   0.2000 0.2000 0.0000  plane waves:    2562
 k-point   9 :   0.0000 0.2000 0.2000  plane waves:    2562
 k-point  10 :   0.2000 0.0000 0.2000  plane waves:    2562
 k-point  11 :  -0.2000 0.2000 0.0000  plane waves:    2562
 k-point  12 :  -0.2000 0.0000 0.2000  plane waves:    2562
 k-point  13 :   0.0000-0.2000 0.2000  plane waves:    2562
 k-point  14 :   0.4000 0.2000 0.0000  plane waves:    2566
 k-point  15 :   0.0000 0.4000 0.2000  plane waves:    2566
 k-point  16 :   0.2000 0.0000 0.4000  plane waves:    2566
 k-point  17 :  -0.2000 0.4000 0.0000  plane waves:    2566
 k-point  18 :  -0.4000 0.0000 0.2000  plane waves:    2566
 k-point  19 :   0.0000 0.2000 0.4000  plane waves:    2566
 k-point  20 :   0.0000-0.4000 0.2000  plane waves:    2566
 k-point  21 :  -0.2000 0.0000 0.4000  plane waves:    2566
 k-point  22 :   0.4000 0.0000 0.2000  plane waves:    2566
 k-point  23 :   0.0000-0.2000 0.4000  plane waves:    2566
 k-point  24 :   0.4000-0.2000 0.0000  plane waves:    2566
 k-point  25 :   0.2000 0.4000 0.0000  plane waves:    2566
 k-point  26 :   0.4000 0.4000 0.0000  plane waves:    2570
 k-point  27 :   0.0000 0.4000 0.4000  plane waves:    2570
 k-point  28 :   0.4000 0.0000 0.4000  plane waves:    2570
 k-point  29 :  -0.4000 0.4000 0.0000  plane waves:    2570
 k-point  30 :  -0.4000 0.0000 0.4000  plane waves:    2570
 k-point  31 :   0.0000-0.4000 0.4000  plane waves:    2570
 k-point  32 :   0.2000 0.2000 0.2000  plane waves:    2572
 k-point  33 :  -0.2000 0.2000 0.2000  plane waves:    2572
 k-point  34 :  -0.2000-0.2000 0.2000  plane waves:    2572
 k-point  35 :   0.2000-0.2000 0.2000  plane waves:    2572
 k-point  36 :   0.4000 0.2000 0.2000  plane waves:    2546
 k-point  37 :   0.2000 0.4000 0.2000  plane waves:    2546
 k-point  38 :   0.2000 0.2000 0.4000  plane waves:    2546
 k-point  39 :  -0.2000 0.4000 0.2000  plane waves:    2546
 k-point  40 :  -0.4000 0.2000 0.2000  plane waves:    2546
 k-point  41 :  -0.2000 0.2000 0.4000  plane waves:    2546
 k-point  42 :  -0.4000-0.2000 0.2000  plane waves:    2546
 k-point  43 :  -0.2000-0.4000 0.2000  plane waves:    2546
 k-point  44 :  -0.2000-0.2000 0.4000  plane waves:    2546
 k-point  45 :   0.2000-0.4000 0.2000  plane waves:    2546
 k-point  46 :   0.4000-0.2000 0.2000  plane waves:    2546
 k-point  47 :   0.2000-0.2000 0.4000  plane waves:    2546
 k-point  48 :   0.4000 0.4000 0.2000  plane waves:    2549
 k-point  49 :   0.2000 0.4000 0.4000  plane waves:    2549
 k-point  50 :   0.4000 0.2000 0.4000  plane waves:    2549
 k-point  51 :  -0.4000 0.4000 0.2000  plane waves:    2549
 k-point  52 :  -0.4000 0.2000 0.4000  plane waves:    2549
 k-point  53 :  -0.2000 0.4000 0.4000  plane waves:    2549
 k-point  54 :  -0.4000-0.4000 0.2000  plane waves:    2549
 k-point  55 :  -0.2000-0.4000 0.4000  plane waves:    2549
 k-point  56 :  -0.4000-0.2000 0.4000  plane waves:    2549
 k-point  57 :   0.4000-0.4000 0.2000  plane waves:    2549
 k-point  58 :   0.4000-0.2000 0.4000  plane waves:    2549
 k-point  59 :   0.2000-0.4000 0.4000  plane waves:    2549
 k-point  60 :   0.4000 0.4000 0.4000  plane waves:    2533
 k-point  61 :  -0.4000 0.4000 0.4000  plane waves:    2533
 k-point  62 :  -0.4000-0.4000 0.4000  plane waves:    2533
 k-point  63 :   0.4000-0.4000 0.4000  plane waves:    2533

 maximum and minimum number of plane-waves per node :       235      194

 maximum number of plane-waves:      2572
 maximum index in each direction: 
   IXMAX=    8   IYMAX=    8   IZMAX=    8
   IXMIN=   -8   IYMIN=   -8   IZMIN=   -8


 parallel 3D FFT for wavefunctions:
    minimum data exchange during FFTs selected (reduces bandwidth)
 parallel 3D FFT for charge:
    minimum data exchange during FFTs selected (reduces bandwidth)


 total amount of memory used by VASP MPI-rank0    47987. kBytes
=======================================================================

   base      :      30000. kBytes
   nonl-proj :       8332. kBytes
   fftplans  :        456. kBytes
   grid      :        919. kBytes
   one-center:         31. kBytes
   wavefun   :       8249. kBytes
 
     INWAV:  cpu time      0.0000: real time      0.0000
 Broyden mixing: mesh for mixing (old mesh)
   NGX = 17   NGY = 17   NGZ = 17
  (NGX  = 72   NGY  = 72   NGZ  = 72)
  gives a total of   4913 points

 initial charge density was supplied:
 charge density of overlapping atoms calculated
 number of electron     206.0000000 magnetization 
 keeping initial charge density in first step


--------------------------------------------------------------------------------------------------------


 Maximum index for augmentation-charges          517 (set IRDMAX)


--------------------------------------------------------------------------------------------------------


 First call to EWALD:  gamma=   0.269
 Maximum number of real-space cells 3x 3x 3
 Maximum number of reciprocal cells 3x 3x 3

    FEWALD:  cpu time      0.0012: real time      0.0012


--------------------------------------- Iteration      1(   1)  ---------------------------------------


    POTLOK:  cpu time      0.3947: real time      0.4010
    SETDIJ:  cpu time      0.1376: real time      0.1382
     EDDAV:  cpu time      5.8603: real time      5.8861
       DOS:  cpu time      0.0045: real time      0.0046
    --------------------------------------------
      LOOP:  cpu time      6.3972: real time      6.4299

 eigenvalue-minimisations  : 15904
 total energy-change (2. order) : 0.1952832E+04  (-0.8006283E+04)
 number of electron     206.0000000 magnetization 
 augmentation part      206.0000000 magnetization 

 Free energy of the ion-electron system (eV)
  ---------------------------------------------------
  alpha Z        PSCENC =      1906.32404538
  Ewald energy   TEWEN  =    -21186.03532722
  -Hartree energ DENC   =     -3939.00768494
  -exchange      EXHF   =         0.00000000
  -V(xc)+E(xc)   XCENC  =       773.87436376
  PAW double counting   =     19616.90948486   -19309.17406293
  entropy T*S    EENTRO =        -0.00085679
  eigenvalues    EBANDS =      -724.91046055
  atomic energy  EATOM  =     24814.85235885
  Solvation  Ediel_sol  =         0.00000000
  ---------------------------------------------------
  free energy    TOTEN  =      1952.83186041 eV

  energy without entropy =     1952.83271720  energy(sigma->0) =     1952.83228880


--------------------------------------------------------------------------------------------------------




--------------------------------------- Iteration      1(   2)  ---------------------------------------


     EDDAV:  cpu time      5.2045: real time      5.2266
       DOS:  cpu time      0.0047: real time      0.0048
    --------------------------------------------
      LOOP:  cpu time      5.2092: real time      5.2314

 eigenvalue-minimisations  : 16076
 total energy-change (2. order) :-0.1981898E+04  (-0.1920317E+04)
 number of electron     206.0000000 magnetization 
 augmentation part      206.0000000 magnetization 

 Free energy of the ion-electron system (eV)
  ---------------------------------------------------
  alpha Z        PSCENC =      1906.32404538
  Ewald energy   TEWEN  =    -21186.03532722
  -Hartree energ DENC   =     -3939.00768494
  -exchange      EXHF   =         0.00000000
  -V(xc)+E(xc)   XCENC  =       773.87436376
  PAW double counting   =     19616.90948486   -19309.17406293
  entropy T*S    EENTRO =        -0.00141186
  eigenvalues    EBANDS =     -2706.80783639
  atomic energy  EATOM  =     24814.85235885
  Solvation  Ediel_sol  =         0.00000000
  ---------------------------------------------------
  free energy    TOTEN  =       -29.06607050 eV

  energy without entropy =      -29.06465864  energy(sigma->0) =      -29.06536457


--------------------------------------------------------------------------------------------------------




--------------------------------------- Iteration      1(   3)  ---------------------------------------


     EDDAV:  cpu time      4.1290: real time      4.1450
       DOS:  cpu time      0.0048: real time      0.0048
    --------------------------------------------
      LOOP:  cpu time      4.1338: real time      4.1498

 eigenvalue-minimisations  : 22840
 total energy-change (2. order) :-0.1584837E+03  (-0.1492501E+03)
 number of electron     206.0000000 magnetization 
 augmentation part      206.0000000 magnetization 

 Free energy of the ion-electron system (eV)
  ---------------------------------------------------
  alpha Z        PSCENC =      1906.32404538
  Ewald energy   TEWEN  =    -21186.03532722
  -Hartree energ DENC   =     -3939.00768494
  -exchange      EXHF   =         0.00000000
  -V(xc)+E(xc)   XCENC  =       773.87436376
  PAW double counting   =     19616.90948486   -19309.17406293
  entropy T*S    EENTRO =        -0.00272783
  eigenvalues    EBANDS =     -2865.29026018
  atomic energy  EATOM  =     24814.85235885
  Solvation  Ediel_sol  =         0.00000000
  ---------------------------------------------------
  free energy    TOTEN  =      -187.54981026 eV

  energy without entropy =     -187.54708244  energy(sigma->0) =     -187.54844635


--------------------------------------------------------------------------------------------------------




--------------------------------------- Iteration      1(   4)  ---------------------------------------


     EDDAV:  cpu time      4.4117: real time      4.4306
       DOS:  cpu time      0.0045: real time      0.0045
    --------------------------------------------
      LOOP:  cpu time      4.4162: real time      4.4376

 eigenvalue-minimisations  : 23344
 total energy-change (2. order) :-0.9454432E+01  (-0.9157887E+01)
 number of electron     206.0000000 magnetization 
 augmentation part      206.0000000 magnetization 

 Free energy of the ion-electron system (eV)
  ---------------------------------------------------
  alpha Z        PSCENC =      1906.32404538
  Ewald energy   TEWEN  =    -21186.03532722
  -Hartree energ DENC   =     -3939.00768494
  -exchange      EXHF   =         0.00000000
  -V(xc)+E(xc)   XCENC  =       773.87436376
  PAW double counting   =     19616.90948486   -19309.17406293
  entropy T*S    EENTRO =        -0.00305845
  eigenvalues    EBANDS =     -2874.74436196
  atomic energy  EATOM  =     24814.85235885
  Solvation  Ediel_sol  =         0.00000000
  ---------------------------------------------------
  free energy    TOTEN  =      -197.00424267 eV

  energy without entropy =     -197.00118421  energy(sigma->0) =     -197.00271344


--------------------------------------------------------------------------------------------------------




--------------------------------------- Iteration      1(   5)  ---------------------------------------


     EDDAV:  cpu time      3.9260: real time      3.9437
       DOS:  cpu time      0.0047: real time      0.0047
    CHARGE:  cpu time      0.0791: real time      0.0793
    MIXING:  cpu time      0.0002: real time      0.0002
    --------------------------------------------
      LOOP:  cpu time      4.0100: real time      4.0254

 eigenvalue-minimisations  : 23592
 total energy-change (2. order) :-0.5665516E+00  (-0.5616668E+00)
 number of electron     205.9999843 magnetization 
 augmentation part       47.0616604 magnetization 

 Broyden mixing:
  rms(total) = 0.56121E+01    rms(broyden)= 0.56112E+01
  rms(prec ) = 0.61618E+01
  weight for this iteration     100.00

 Free energy of the ion-electron system (eV)
  ---------------------------------------------------
  alpha Z        PSCENC =      1906.32404538
  Ewald energy   TEWEN  =    -21186.03532722
  -Hartree energ DENC   =     -3939.00768494
  -exchange      EXHF   =         0.00000000
  -V(xc)+E(xc)   XCENC  =       773.87436376
  PAW double counting   =     19616.90948486   -19309.17406293
  entropy T*S    EENTRO =        -0.00325910
  eigenvalues    EBANDS =     -2875.31071292
  atomic energy  EATOM  =     24814.85235885
  Solvation  Ediel_sol  =         0.00000000
  ---------------------------------------------------
  free energy    TOTEN  =      -197.57079427 eV

  energy without entropy =     -197.56753517  energy(sigma->0) =     -197.56916472


--------------------------------------------------------------------------------------------------------




--------------------------------------- Iteration      1(   6)  ---------------------------------------


    POTLOK:  cpu time      0.0049: real time      0.0050
    SETDIJ:  cpu time      0.0018: real time      0.0018
     EDDAV:  cpu time      3.3321: real time      3.3449
       DOS:  cpu time      0.0048: real time      0.0048
    CHARGE:  cpu time      0.0820: real time      0.0822
    MIXING:  cpu time      0.0003: real time      0.0003
    --------------------------------------------
      LOOP:  cpu time      3.4258: real time      3.4390

 eigenvalue-minimisations  : 19040
 total energy-change (2. order) : 0.7136298E+01  (-0.2471356E+01)
 number of electron     205.9999833 magnetization 
 augmentation part       48.8068982 magnetization 

 Broyden mixing:
  rms(total) = 0.21427E+01    rms(broyden)= 0.21425E+01
  rms(prec ) = 0.27625E+01
  weight for this iteration     100.00

 eigenvalues of (default mixing * dielectric matrix)
  average eigenvalue GAMMA=   1.4644
  1.4644

 Free energy of the ion-electron system (eV)
  ---------------------------------------------------
  alpha Z        PSCENC =      1906.32404538
  Ewald energy   TEWEN  =    -21186.03532722
  -Hartree energ DENC   =     -3713.82557851
  -exchange      EXHF   =         0.00000000
  -V(xc)+E(xc)   XCENC  =       763.09144371
  PAW double counting   =     23734.78298799   -23456.98522325
  entropy T*S    EENTRO =        -0.00307471
  eigenvalues    EBANDS =     -3052.63612813
  atomic energy  EATOM  =     24814.85235885
  Solvation  Ediel_sol  =         0.00000000
  ---------------------------------------------------
  free energy    TOTEN  =      -190.43449590 eV

  energy without entropy =     -190.43142119  energy(sigma->0) =     -190.43295855


--------------------------------------------------------------------------------------------------------




--------------------------------------- Iteration      1(   7)  ---------------------------------------


    POTLOK:  cpu time      0.0046: real time      0.0047
    SETDIJ:  cpu time      0.0017: real time      0.0017
     EDDAV:  cpu time      3.7124: real time      3.7278
       DOS:  cpu time      0.0047: real time      0.0047
    CHARGE:  cpu time      0.0820: real time      0.0823
    MIXING:  cpu time      0.0003: real time      0.0003
    --------------------------------------------
      LOOP:  cpu time      3.8056: real time      3.8215

 eigenvalue-minimisations  : 21752
 total energy-change (2. order) :-0.1075567E+00  (-0.2292593E+01)
 number of electron     205.9999841 magnetization 
 augmentation part       48.5681381 magnetization 

 Broyden mixing:
  rms(total) = 0.12906E+01    rms(broyden)= 0.12902E+01
  rms(prec ) = 0.27093E+01
  weight for this iteration     100.00

 eigenvalues of (default mixing * dielectric matrix)
  average eigenvalue GAMMA=   1.1045
  1.6764  0.5326

 Free energy of the ion-electron system (eV)
  ---------------------------------------------------
  alpha Z        PSCENC =      1906.32404538
  Ewald energy   TEWEN  =    -21186.03532722
  -Hartree energ DENC   =     -3663.80384078
  -exchange      EXHF   =         0.00000000
  -V(xc)+E(xc)   XCENC  =       759.87597643
  PAW double counting   =     26220.44688612   -25952.56065994
  entropy T*S    EENTRO =        -0.00483952
  eigenvalues    EBANDS =     -3089.63665191
  atomic energy  EATOM  =     24814.85235885
  Solvation  Ediel_sol  =         0.00000000
  ---------------------------------------------------
  free energy    TOTEN  =      -190.54205260 eV

  energy without entropy =     -190.53721308  energy(sigma->0) =     -190.53963284


--------------------------------------------------------------------------------------------------------




--------------------------------------- Iteration      1(   8)  ---------------------------------------


    POTLOK:  cpu time      0.0044: real time      0.0046
    SETDIJ:  cpu time      0.0017: real time      0.0017
     EDDAV:  cpu time      3.3918: real time      3.4048
       DOS:  cpu time      0.0044: real time      0.0045
    CHARGE:  cpu time      0.0788: real time      0.0791
    MIXING:  cpu time      0.0002: real time      0.0002
    --------------------------------------------
      LOOP:  cpu time      3.4815: real time      3.4949

 eigenvalue-minimisations  : 19640
 total energy-change (2. order) : 0.2664791E+01  (-0.9822096E+00)
 number of electron     205.9999837 magnetization 
 augmentation part       49.1632955 magnetization 

 Broyden mixing:
  rms(total) = 0.37356E+00    rms(broyden)= 0.37283E+00
  rms(prec ) = 0.59191E+00
  weight for this iteration     100.00

 eigenvalues of (default mixing * dielectric matrix)
  average eigenvalue GAMMA=   1.1277
  1.8093  1.1293  0.4445

 Free energy of the ion-electron system (eV)
  ---------------------------------------------------
  alpha Z        PSCENC =      1906.32404538
  Ewald energy   TEWEN  =    -21186.03532722
  -Hartree energ DENC   =     -3605.06052815
  -exchange      EXHF   =         0.00000000
  -V(xc)+E(xc)   XCENC  =       757.38279627
  PAW double counting   =     27572.08273544   -27312.18264299
  entropy T*S    EENTRO =        -0.00200429
  eigenvalues    EBANDS =     -3135.23869512
  atomic energy  EATOM  =     24814.85235885
  Solvation  Ediel_sol  =         0.00000000
  ---------------------------------------------------
  free energy    TOTEN  =      -187.87726184 eV

  energy without entropy =     -187.87525755  energy(sigma->0) =     -187.87625970


--------------------------------------------------------------------------------------------------------




--------------------------------------- Iteration      1(   9)  ---------------------------------------


    POTLOK:  cpu time      0.0045: real time      0.0046
    SETDIJ:  cpu time      0.0017: real time      0.0017
     EDDAV:  cpu time      3.7172: real time      3.7314
       DOS:  cpu time      0.0042: real time      0.0042
    CHARGE:  cpu time      0.0824: real time      0.0827
    MIXING:  cpu time      0.0003: real time      0.0003
    --------------------------------------------
      LOOP:  cpu time      3.8103: real time      3.8249

 eigenvalue-minimisations  : 21656
 total energy-change (2. order) :-0.6057162E-01  (-0.1747530E+00)
 number of electron     205.9999837 magnetization 
 augmentation part       49.2139077 magnetization 

 Broyden mixing:
  rms(total) = 0.32676E+00    rms(broyden)= 0.32668E+00
  rms(prec ) = 0.48759E+00
  weight for this iteration     100.00

 eigenvalues of (default mixing * dielectric matrix)
  average eigenvalue GAMMA=   1.1234
  1.9970  1.6458  0.4817  0.3690

 Free energy of the ion-electron system (eV)
  ---------------------------------------------------
  alpha Z        PSCENC =      1906.32404538
  Ewald energy   TEWEN  =    -21186.03532722
  -Hartree energ DENC   =     -3601.14257224
  -exchange      EXHF   =         0.00000000
  -V(xc)+E(xc)   XCENC  =       757.22841044
  PAW double counting   =     27871.28388346   -27611.73508444
  entropy T*S    EENTRO =        -0.00122333
  eigenvalues    EBANDS =     -3138.71232434
  atomic energy  EATOM  =     24814.85235885
  Solvation  Ediel_sol  =         0.00000000
  ---------------------------------------------------
  free energy    TOTEN  =      -187.93783346 eV

  energy without entropy =     -187.93661013  energy(sigma->0) =     -187.93722180


--------------------------------------------------------------------------------------------------------




--------------------------------------- Iteration      1(  10)  ---------------------------------------


    POTLOK:  cpu time      0.0044: real time      0.0046
    SETDIJ:  cpu time      0.0017: real time      0.0017
     EDDAV:  cpu time     78.3385: real time     81.5519
       DOS:  cpu time      0.0044: real time      0.0045
    CHARGE:  cpu time      0.0821: real time      0.0823
    MIXING:  cpu time      0.0003: real time      0.0003
    --------------------------------------------
      LOOP:  cpu time     78.4314: real time     81.6452

 eigenvalue-minimisations  : 20228
 total energy-change (2. order) : 0.4653034E-01  (-0.3409812E-01)
 number of electron     205.9999838 magnetization 
 augmentation part       49.1626558 magnetization 

 Broyden mixing:
  rms(total) = 0.13943E+00    rms(broyden)= 0.13938E+00
  rms(prec ) = 0.19343E+00
  weight for this iteration     100.00

 eigenvalues of (default mixing * dielectric matrix)
  average eigenvalue GAMMA=   1.1874
  2.5503  1.7684  0.8185  0.4290  0.3710

 Free energy of the ion-electron system (eV)
  ---------------------------------------------------
  alpha Z        PSCENC =      1906.32404538
  Ewald energy   TEWEN  =    -21186.03532722
  -Hartree energ DENC   =     -3603.45397721
  -exchange      EXHF   =         0.00000000
  -V(xc)+E(xc)   XCENC  =       757.32245636
  PAW double counting   =     28162.43532718   -27902.23742567
  entropy T*S    EENTRO =        -0.00152548
  eigenvalues    EBANDS =     -3137.09723528
  atomic energy  EATOM  =     24814.85235885
  Solvation  Ediel_sol  =         0.00000000
  ---------------------------------------------------
  free energy    TOTEN  =      -187.89130312 eV

  energy without entropy =     -187.88977764  energy(sigma->0) =     -187.89054038


--------------------------------------------------------------------------------------------------------




--------------------------------------- Iteration      1(  11)  ---------------------------------------


    POTLOK:  cpu time      0.0045: real time      0.0047
    SETDIJ:  cpu time      0.0017: real time      0.0017
     EDDAV:  cpu time      3.5471: real time      3.5601
       DOS:  cpu time      0.0044: real time      0.0044
    CHARGE:  cpu time      0.0823: real time      0.0826
    MIXING:  cpu time      0.0003: real time      0.0003
    --------------------------------------------
      LOOP:  cpu time      3.6402: real time      3.6537

 eigenvalue-minimisations  : 20872
 total energy-change (2. order) : 0.3469617E-02  (-0.9604821E-02)
 number of electron     205.9999838 magnetization 
 augmentation part       49.1295357 magnetization 

 Broyden mixing:
  rms(total) = 0.40387E-01    rms(broyden)= 0.40309E-01
  rms(prec ) = 0.97586E-01
  weight for this iteration     100.00

 eigenvalues of (default mixing * dielectric matrix)
  average eigenvalue GAMMA=   1.0837
  2.5369  1.7425  0.9000  0.4874  0.4735  0.3619

 Free energy of the ion-electron system (eV)
  ---------------------------------------------------
  alpha Z        PSCENC =      1906.32404538
  Ewald energy   TEWEN  =    -21186.03532722
  -Hartree energ DENC   =     -3606.42048429
  -exchange      EXHF   =         0.00000000
  -V(xc)+E(xc)   XCENC  =       757.45880286
  PAW double counting   =     28299.77879810   -28038.71562969
  entropy T*S    EENTRO =        -0.00150176
  eigenvalues    EBANDS =     -3135.12889571
  atomic energy  EATOM  =     24814.85235885
  Solvation  Ediel_sol  =         0.00000000
  ---------------------------------------------------
  free energy    TOTEN  =      -187.88783351 eV

  energy without entropy =     -187.88633175  energy(sigma->0) =     -187.88708263


--------------------------------------------------------------------------------------------------------




--------------------------------------- Iteration      1(  12)  ---------------------------------------


    POTLOK:  cpu time      0.0040: real time      0.0041
    SETDIJ:  cpu time      0.0017: real time      0.0017
     EDDAV:  cpu time      3.5654: real time      3.5788
       DOS:  cpu time      0.0044: real time      0.0044
[...]
     25     -28.8142      2.00000
     26     -28.7981      2.00000
     27     -26.1190      2.00000
     28     -25.9640      2.00000
     29     -25.9421      2.00000
     30     -25.9062      2.00000
     31     -25.8942      2.00000
     32     -25.8848      2.00000
     33     -25.8510      2.00000
     34     -25.8255      2.00000
     35     -25.6728      2.00000
     36     -25.2678      2.00000
     37     -25.2442      2.00000
     38     -25.2075      2.00000
     39     -25.1991      2.00000
     40     -25.1243      2.00000
     41     -25.0529      2.00000
     42     -25.0135      2.00000
     43     -24.9711      2.00000
     44     -24.9505      2.00000
     45     -24.8956      2.00000
     46     -24.8367      2.00000
     47     -24.7742      2.00000
     48     -24.7627      2.00000
     49     -24.7306      2.00000
     50     -24.7216      2.00000
     51     -21.9180      2.00000
     52     -21.8427      2.00000
     53     -21.6795      2.00000
     54     -21.6109      2.00000
     55     -21.6013      2.00000
     56     -21.5978      2.00000
     57     -21.5805      2.00000
     58     -21.4547      2.00000
     59     -21.3746      2.00000
     60       3.2379      2.00000
     61       3.7643      2.00000
     62       3.7877      2.00000
     63       4.2590      2.00000
     64       4.6031      2.00000
     65       4.6548      2.00000
     66       5.0395      2.00000
     67       5.4782      2.00000
     68       5.9166      2.00000
     69       5.9665      2.00000
     70       5.9886      2.00000
     71       6.0566      2.00000
     72       6.1465      2.00000
     73       6.1964      2.00000
     74       6.2502      2.00000
     75       6.3259      2.00000
     76       6.3396      2.00000
     77       6.3892      2.00000
     78       6.4245      2.00000
     79       6.4727      2.00000
     80       6.7254      2.00000
     81       6.7917      2.00000
     82       6.8799      2.00000
     83       6.9087      2.00000
     84       6.9894      2.00000
     85       7.0016      2.00000
     86       7.0154      2.00000
     87       7.0663      2.00000
     88       7.0949      2.00000
     89       7.1274      2.00000
     90       7.1563      2.00000
     91       7.2169      2.00000
     92       7.2293      2.00000
     93       7.2675      2.00000
     94       7.2952      2.00000
     95       7.3226      2.00000
     96       7.3633      2.00000
     97       7.3744      2.00000
     98       7.4005      2.00000
     99       7.4377      2.00000
    100       7.4777      2.00000
    101       7.5200      2.00000
    102       7.5464      2.00000
    103       7.6384      2.00000
    104       7.6571      2.00000
    105       7.7161      2.00000
    106       7.7930      2.00000
    107       8.0899      2.00000
    108      10.7382      0.00000
    109      10.7840      0.00000
    110      11.0143      0.00000
    111      11.0836      0.00000
    112      11.0939      0.00000
    113      11.1669      0.00000
    114      11.2244      0.00000
    115      11.2788      0.00000
    116      11.3952      0.00000
    117      11.4237      0.00000
    118      11.5425      0.00000
    119      11.5706      0.00000
    120      11.6624      0.00000
    121      11.7070      0.00000
    122      11.7579      0.00000
    123      11.7946      0.00000
    124      11.8553      0.00000

 k-point    63 :       0.4000   -0.4000    0.4000
  band No.  band energies     occupation 
      1     -64.8235      2.00000
      2     -64.8125      2.00000
      3     -64.8083      2.00000
      4     -64.7895      2.00000
      5     -64.7744      2.00000
      6     -51.8028      2.00000
      7     -51.7686      2.00000
      8     -51.7263      2.00000
      9     -45.5893      2.00000
     10     -45.5135      2.00000
     11     -45.4904      2.00000
     12     -29.2193      2.00000
     13     -29.1892      2.00000
     14     -29.1770      2.00000
     15     -29.1451      2.00000
     16     -29.1156      2.00000
     17     -29.0870      2.00000
     18     -29.0437      2.00000
     19     -29.0208      2.00000
     20     -29.0137      2.00000
     21     -28.9407      2.00000
     22     -28.9297      2.00000
     23     -28.8743      2.00000
     24     -28.8413      2.00000
     25     -28.8135      2.00000
     26     -28.7982      2.00000
     27     -26.1156      2.00000
     28     -25.9611      2.00000
     29     -25.9431      2.00000
     30     -25.9052      2.00000
     31     -25.8920      2.00000
     32     -25.8847      2.00000
     33     -25.8592      2.00000
     34     -25.8316      2.00000
     35     -25.6683      2.00000
     36     -25.2666      2.00000
     37     -25.2483      2.00000
     38     -25.2068      2.00000
     39     -25.1973      2.00000
     40     -25.1231      2.00000
     41     -25.0515      2.00000
     42     -25.0090      2.00000
     43     -24.9715      2.00000
     44     -24.9542      2.00000
     45     -24.8956      2.00000
     46     -24.8365      2.00000
     47     -24.7733      2.00000
     48     -24.7643      2.00000
     49     -24.7316      2.00000
     50     -24.7213      2.00000
     51     -21.9193      2.00000
     52     -21.8420      2.00000
     53     -21.6797      2.00000
     54     -21.6094      2.00000
     55     -21.6009      2.00000
     56     -21.5994      2.00000
     57     -21.5805      2.00000
     58     -21.4535      2.00000
     59     -21.3756      2.00000
     60       3.2013      2.00000
     61       3.7354      2.00000
     62       3.9821      2.00000
     63       4.2306      2.00000
     64       4.4219      2.00000
     65       4.6508      2.00000
     66       5.1203      2.00000
     67       5.4770      2.00000
     68       5.9235      2.00000
     69       5.9807      2.00000
     70       6.0270      2.00000
     71       6.0565      2.00000
     72       6.0840      2.00000
     73       6.2091      2.00000
     74       6.2409      2.00000
     75       6.3204      2.00000
     76       6.3542      2.00000
     77       6.3840      2.00000
     78       6.4137      2.00000
     79       6.4874      2.00000
     80       6.7240      2.00000
     81       6.7948      2.00000
     82       6.8813      2.00000
     83       6.9134      2.00000
     84       6.9713      2.00000
     85       7.0018      2.00000
     86       7.0287      2.00000
     87       7.0673      2.00000
     88       7.0870      2.00000
     89       7.1185      2.00000
     90       7.1448      2.00000
     91       7.2106      2.00000
     92       7.2368      2.00000
     93       7.2615      2.00000
     94       7.3044      2.00000
     95       7.3240      2.00000
     96       7.3562      2.00000
     97       7.3818      2.00000
     98       7.4109      2.00000
     99       7.4387      2.00000
    100       7.4705      2.00000
    101       7.5217      2.00000
    102       7.5697      2.00000
    103       7.6144      2.00000
    104       7.6815      2.00000
    105       7.7210      2.00000
    106       7.7705      2.00000
    107       8.0968      2.00000
    108      10.7497      0.00000
    109      10.9061      0.00000
    110      10.9275      0.00000
    111      11.0365      0.00000
    112      11.1038      0.00000
    113      11.1538      0.00000
    114      11.2151      0.00000
    115      11.2464      0.00000
    116      11.3755      0.00000
    117      11.3958      0.00000
    118      11.5284      0.00000
    119      11.6012      0.00000
    120      11.6342      0.00000
    121      11.7215      0.00000
    122      11.7574      0.00000
    123      11.8342      0.00000
    124      11.9354      0.00000


--------------------------------------------------------------------------------------------------------


 soft charge-density along one line, spin component           1
         0         1         2         3         4         5         6         7         8         9
 total charge-density along one line
 
 pseudopotential strength for first ion, spin component:           1
  5.842 -20.595  -0.004   0.000   0.000   0.009  -0.000  -0.000
-20.595   9.482  -0.006   0.000   0.000   0.000  -0.000  -0.000
 -0.004  -0.006  -9.928  -0.002  -0.002   6.221   0.002   0.002
  0.000   0.000  -0.002  -9.926  -0.002   0.002   6.218   0.002
  0.000   0.000  -0.002  -0.002  -9.923   0.002   0.002   6.216
  0.009   0.000   6.221   0.002   0.002   7.801  -0.001  -0.001
 -0.000  -0.000   0.002   6.218   0.002  -0.001   7.802  -0.001
 -0.000  -0.000   0.002   0.002   6.216  -0.001  -0.001   7.803
 -0.001  -0.001   0.000  -0.000  -0.004  -0.000   0.000   0.005
 -0.001  -0.001  -0.000  -0.004  -0.000  -0.000   0.005   0.000
 -0.000   0.000   0.002   0.000  -0.000  -0.002  -0.000   0.000
 -0.001  -0.001  -0.000   0.000   0.000   0.000  -0.000  -0.000
  0.002   0.001   0.003   0.000   0.000  -0.004  -0.000  -0.000
 -0.002  -0.001   0.000  -0.000  -0.005  -0.000   0.000   0.007
 -0.002  -0.001  -0.000  -0.005  -0.000  -0.000   0.007   0.000
 -0.000   0.000   0.002   0.000  -0.000  -0.003  -0.000   0.000
 -0.002  -0.001  -0.000   0.000   0.000   0.000  -0.000  -0.000
  0.002   0.001   0.004   0.000   0.000  -0.005  -0.000  -0.000
 total augmentation occupancy for first ion, spin component:           1
  1.995  -0.048   0.000  -0.000  -0.000   0.000  -0.000  -0.000  -0.002  -0.002   0.000  -0.002   0.002   0.002   0.002  -0.000
 -0.048   1.289   0.003  -0.000  -0.000   0.004   0.000   0.000  -0.019  -0.021  -0.011  -0.019   0.026   0.015   0.016   0.006
  0.000   0.003   1.996  -0.000  -0.000  -0.030   0.000   0.000   0.000  -0.000   0.003   0.000   0.005  -0.000  -0.000  -0.002
 -0.000  -0.000  -0.000   1.996  -0.000   0.000  -0.030   0.000   0.000   0.011  -0.000   0.000   0.000  -0.000  -0.006   0.000
 -0.000  -0.000  -0.000  -0.000   1.996   0.000   0.000  -0.031   0.010  -0.000   0.000   0.000  -0.000  -0.006  -0.000  -0.000
  0.000   0.004  -0.030   0.000   0.000   0.068  -0.001  -0.001   0.000   0.000  -0.008  -0.000  -0.013   0.000   0.000   0.003
 -0.000   0.000   0.000  -0.030   0.000  -0.001   0.067  -0.000   0.000  -0.002   0.000   0.000  -0.000   0.000   0.003  -0.000
 -0.000   0.000   0.000   0.000  -0.031  -0.001  -0.000   0.071  -0.000   0.000  -0.000  -0.000   0.000   0.003   0.000   0.000
 -0.002  -0.019   0.000   0.000   0.010   0.000   0.000  -0.000   3.443  -0.083   0.014  -0.080  -0.000  -1.466   0.044  -0.008
 -0.002  -0.021  -0.000   0.011  -0.000   0.000  -0.002   0.000  -0.083   3.452  -0.007  -0.084   0.012   0.044  -1.465   0.004
  0.000  -0.011   0.003  -0.000   0.000  -0.008   0.000  -0.000   0.014  -0.007   2.657  -0.006  -0.029  -0.007   0.004  -1.209
 -0.002  -0.019   0.000   0.000   0.000  -0.000   0.000  -0.000  -0.080  -0.084  -0.006   3.449  -0.013   0.043   0.045   0.004
  0.002   0.026   0.005   0.000  -0.000  -0.013  -0.000   0.000  -0.000   0.012  -0.029  -0.013   2.668   0.000  -0.006   0.010
  0.002   0.015  -0.000  -0.000  -0.006   0.000   0.000   0.003  -1.466   0.044  -0.007   0.043   0.000   0.637  -0.023   0.004
  0.002   0.016  -0.000  -0.006  -0.000   0.000   0.003   0.000   0.044  -1.465   0.004   0.045  -0.006  -0.023   0.634  -0.002
 -0.000   0.006  -0.002   0.000  -0.000   0.003  -0.000   0.000  -0.008   0.004  -1.209   0.004   0.010   0.004  -0.002   0.557
  0.002   0.015  -0.000  -0.000  -0.000   0.001   0.000   0.000   0.043   0.045   0.003  -1.468   0.007  -0.023  -0.023  -0.002
 -0.002  -0.009  -0.003   0.000   0.000   0.006   0.000  -0.000  -0.000  -0.007   0.010   0.007  -1.219  -0.000   0.003  -0.003


------------------------ aborting loop because EDIFF is reached ----------------------------------------


    CHARGE:  cpu time      0.0809: real time      0.0811
    FORLOC:  cpu time      0.0005: real time      0.0005
    FORNL :  cpu time      1.3272: real time      1.3318
    STRESS:  cpu time      1.0890: real time      1.0925
    FORCOR:  cpu time      0.0062: real time      0.0062
    FORHAR:  cpu time      0.0014: real time      0.0014
    MIXING:  cpu time      0.0007: real time      0.0007
    OFIELD:  cpu time      0.0000: real time      0.0000

  FORCE on cell =-STRESS in cart. coord.  units (eV):
  Direction    XX          YY          ZZ          XY          YZ          ZX
  --------------------------------------------------------------------------------------
  Alpha Z  1906.32405  1906.32405  1906.32405
  Ewald   -7040.33928 -7133.20074 -7012.56264     0.00000   -12.64610    -4.21537
  Hartree  1223.03790  1134.53904  1248.40172     0.65212   -13.05431    -4.54794
  E(xc)    -942.24839  -942.21912  -942.24727    -0.01997     0.05305     0.02347
  Local    1579.90930  1759.65858  1526.62544    -0.53308    24.83250     8.34266
  n-local  -370.96949  -369.30526  -371.23380    -0.04304    -0.04164    -0.10541
  augment   595.13628   595.30702   595.11821     0.05312     0.07999     0.08687
  Kinetic  3024.32288  3025.04546  3024.53386    -0.13360     0.49831     0.25399
  Fock        0.00000     0.00000     0.00000     0.00000     0.00000     0.00000
  -------------------------------------------------------------------------------------
  Total     -24.82674   -23.85098   -25.04043    -0.02445    -0.27819    -0.16172
  in kB    -139.62159  -134.13409  -140.82337    -0.13751    -1.56449    -0.90950
  external pressure =     -138.19 kB  Pullay stress =        0.00 kB


 VOLUME and BASIS-vectors are now :
 -----------------------------------------------------------------------------
  energy-cutoff  :      250.00
  volume of cell :      284.89
      direct lattice vectors                 reciprocal lattice vectors
     6.580000000  0.000000000  0.000000000     0.151975684  0.000000000  0.000000000
     0.000000000  6.580000000  0.000000000     0.000000000  0.151975684  0.000000000
     0.000000000  0.000000000  6.580000000     0.000000000  0.000000000  0.151975684

  length of vectors
     6.580000000  6.580000000  6.580000000     0.151975684  0.151975684  0.151975684


 FORCES acting on ions
    electron-ion (+dipol)            ewald-force                    non-local-force                 convergence-correction
 -----------------------------------------------------------------------------------------------
   0.204E+02 -.103E+03 0.204E+02   -.204E+02 0.102E+03 -.204E+02   -.148E-01 0.134E+00 -.146E-01   0.301E-04 -.980E-04 0.581E-04
   -.204E+02 -.103E+03 -.204E+02   0.204E+02 0.102E+03 0.204E+02   0.121E-01 0.903E-01 0.141E-01   -.269E-04 -.595E-04 -.591E-04
   -.616E+02 0.208E+02 0.444E-02   0.612E+02 -.204E+02 0.128E-15   0.579E-01 -.170E+00 -.484E-02   0.582E-06 -.200E-04 0.723E-04
   0.220E+02 -.110E+03 -.220E+02   -.220E+02 0.110E+03 0.220E+02   -.260E-01 0.695E-01 0.216E-01   0.335E-04 -.754E-04 -.592E-04
   0.663E+02 -.224E+02 -.949E-03   -.659E+02 0.220E+02 -.386E-13   -.435E-01 0.669E-01 0.394E-02   0.234E-04 -.922E-05 -.707E-04
   -.220E+02 0.110E+03 0.220E+02   0.220E+02 -.110E+03 -.220E+02   0.281E-01 0.412E-01 -.266E-01   -.196E-04 0.408E-04 0.508E-04
   -.173E+02 0.874E+02 -.173E+02   0.173E+02 -.863E+02 0.173E+02   0.124E-01 -.295E-01 0.181E-01   -.251E-04 0.603E-04 -.477E-04
   -.173E+02 -.873E+02 0.173E+02   0.173E+02 0.863E+02 -.173E+02   0.128E-02 0.793E-01 -.698E-02   -.276E-04 -.724E-04 0.543E-04
   0.522E+02 0.177E+02 -.148E-01   -.518E+02 -.173E+02 0.142E-13   0.281E-03 -.666E-01 0.189E-01   0.890E-05 -.617E-05 0.574E-04
   0.522E+02 0.177E+02 0.122E-01   -.518E+02 -.173E+02 -.262E-13   -.802E-02 -.589E-01 -.990E-02   0.581E-05 -.484E-05 -.584E-04
   -.522E+02 0.177E+02 0.964E-02   0.518E+02 -.173E+02 0.306E-13   0.666E-02 -.688E-01 -.135E-01   -.102E-04 -.173E-05 -.609E-04
   0.220E+02 0.111E+03 -.220E+02   -.220E+02 -.110E+03 0.220E+02   -.219E-01 0.728E-01 0.201E-01   0.293E-04 0.105E-03 -.546E-04
   -.663E+02 -.223E+02 0.335E-02   0.659E+02 0.220E+02 -.386E-13   -.198E-01 -.499E-01 -.832E-03   -.454E-04 -.485E-06 -.807E-04
   0.220E+02 0.111E+03 0.220E+02   -.220E+02 -.110E+03 -.220E+02   -.198E-01 0.867E-01 -.139E-01   0.274E-04 0.890E-04 0.541E-04
   -.663E+02 -.223E+02 0.956E-03   0.659E+02 0.220E+02 0.820E-16   -.245E-01 -.660E-01 -.658E-02   -.547E-04 0.736E-05 0.819E-04
   0.663E+02 -.223E+02 -.137E-02   -.659E+02 0.220E+02 0.512E-15   0.217E-01 -.495E-01 -.295E-02   0.455E-04 0.555E-06 0.789E-04
 -----------------------------------------------------------------------------------------------
   0.379E-01 -.815E-01 0.373E-02   0.711E-13 0.000E+00 -.172E-13   -.378E-01 0.815E-01 -.374E-02   -.495E-05 -.451E-04 0.163E-04
 
 
 POSITION                                       TOTAL-FORCE (eV/Angst)
 -----------------------------------------------------------------------------------
      0.00000      0.00000      0.00000         0.027768     -0.861982      0.026097
      3.29000      0.00000      3.29000        -0.024353     -0.771598     -0.031438
      1.64500      1.64500      1.64500        -0.383879      0.263419     -0.000326
      0.00000      0.00000      3.29000         0.016701     -0.584741     -0.016985
      4.93500      4.93500      4.93500         0.322544     -0.337683      0.002921
      3.29000      3.29000      0.00000        -0.012613      0.597206      0.019219
      3.29000      3.29000      3.29000        -0.000879      1.046124      0.000783
      3.29000      0.00000      0.00000        -0.007031     -0.947222      0.002032
      4.93500      1.64500      1.64500         0.464982      0.375849      0.004238
      4.93500      1.64500      4.93500         0.452199      0.395625      0.002245
      1.64500      1.64500      4.93500        -0.448224      0.375472     -0.003870
      0.00000      3.29000      3.29000         0.009714      0.884788     -0.009093
      1.64500      4.93500      4.93500        -0.430963     -0.428261      0.002439
      0.00000      3.29000      0.00000         0.008636      0.856345      0.011520
      1.64500      4.93500      1.64500        -0.409615     -0.434523     -0.005541
      4.93500      4.93500      1.64500         0.415012     -0.428819     -0.004241
 -----------------------------------------------------------------------------------
    total drift:                                0.000010      0.000020     -0.000002


--------------------------------------------------------------------------------------------------------



  FREE ENERGIE OF THE ION-ELECTRON SYSTEM (eV)
  ---------------------------------------------------
  free  energy   TOTEN  =      -187.88419891 eV

  energy  without entropy=     -187.88282789  energy(sigma->0) =     -187.88351340
 


--------------------------------------------------------------------------------------------------------


    POTLOK:  cpu time      0.0060: real time      0.0060


--------------------------------------------------------------------------------------------------------


     LOOP+:  cpu time    166.9107: real time    170.6229
    4ORBIT:  cpu time      0.0000: real time      0.0000

 total amount of memory used by VASP MPI-rank0    47987. kBytes
=======================================================================

   base      :      30000. kBytes
   nonl-proj :       8332. kBytes
   fftplans  :        456. kBytes
   grid      :        919. kBytes
   one-center:         31. kBytes
   wavefun   :       8249. kBytes
 
  
  
 General timing and accounting informations for this job:
 ========================================================
  
                  Total CPU time used (sec):      170.133
                            User time (sec):      166.757
                          System time (sec):        3.376
                         Elapsed time (sec):      175.557
  
                   Maximum memory used (kb):       90476.
                   Average memory used (kb):          N/A
  
                          Minor page faults:         8480
                          Major page faults:            0
                 Voluntary context switches:          238
