 vasp.6.3.1 04May22 (build Jul 26 2022 04:02:40) complex                        
  
 executed on             LinuxIFC date 2023.11.30  23:29:29
 running on   48 total cores
 distrk:  each k-point on   48 cores,    1 groups
 distr:  one band on NCORE=  12 cores,    4 groups


--------------------------------------------------------------------------------------------------------


 INCAR:
   ISTART = 0
   NWRITE = 2
   PREC = Accurate
   ENCUT = 250
   GGA = PE
   NSW = 0
   ISIF = 2
   ISYM = 2
   NBLOCK = 1
   KBLOCK = 1
   IBRION = -1
   NELM = 80
   EDIFF = 1E-08
   EDIFFG = -0.01
   ALGO = Normal
   LDIAG = .TRUE.
   LREAL = .FALSE.
   ISMEAR = 0
   SIGMA = 0.02
   ICHARG = 2
   LPLANE = .TRUE.
   NPAR = 4
   LSCALU = .FALSE.
   NSIM = 4
   LWAVE = .FALSE.
   LCHARG = .FALSE.
   ICORELEVEL = 1

 POTCAR:    PAW_PBE Nb_sv 25May2007               
 POTCAR:    PAW_PBE Mo_sv 02Feb2006               
 POTCAR:    PAW_PBE Ta_pv 07Sep2000               
 POTCAR:    PAW_PBE W_sv 04Sep2015                
 POTCAR:    PAW_PBE Nb_sv 25May2007               
   SHA256 =  0e8fc07c9fcd1164cf2ade22d0399fd28f85e91cd773dfa6cf24839a48c95e24 Nb_sv/POTCAR          
   COPYR  = (c) Copyright 25May2007 Georg Kresse                                                    
   COPYR  = This file is part of the software VASP. Any use, copying, and all other rights are regul
   COPYR  = If you do not have a valid VASP license, you may not use, copy or distribute this file. 
   VRHFIN =Nb: 4p5s4d                                                                               
   LEXCH  = PE                                                                                      
   EATOM  =  1555.1913 eV,  114.3033 Ry                                                             
                                                                                                    
   TITEL  = PAW_PBE Nb_sv 25May2007                                                                 
   LULTRA =        F    use ultrasoft PP ?                                                          
   IUNSCR =        1    unscreen: 0-lin 1-nonlin 2-no                                               
   RPACOR =    1.800    partial core radius                                                         
   POMASS =   92.910; ZVAL   =   13.000    mass and valenz                                          
   RCORE  =    2.400    outmost cutoff radius                                                       
   RWIGS  =    2.400; RWIGS  =    1.270    wigner-seitz radius (au A)                               
   ENMAX  =  293.235; ENMIN  =  219.927 eV                                                          
   ICORE  =        3    local potential                                                             
   LCOR   =        T    correct aug charges                                                         
   LPAW   =        T    paw PP                                                                      
   EAUG   =  455.659                                                                                
   DEXC   =    0.000                                                                                
   RMAX   =    2.456    core radius for proj-oper                                                   
   RAUG   =    1.300    factor for augmentation sphere                                              
   RDEP   =    2.451    radius for radial grids                                                     
   RDEPT  =    1.956    core radius for aug-charge                                                  
                                                                                                    
   Atomic configuration                                                                             
   11 entries                                                                                       
     n  l   j            E        occ.                                                              
     1  0  0.50    -18805.2457   2.0000                                                             
     2  0  0.50     -2630.2869   2.0000                                                             
     2  1  1.50     -2348.4046   6.0000                                                             
     3  0  0.50      -438.8757   2.0000                                                             
     3  1  1.50      -346.7588   6.0000                                                             
     3  2  2.50      -196.2560  10.0000                                                             
     4  0  0.50       -58.3859   2.0000                                                             
     5  0  0.50        -3.9816   1.0000                                                             
     4  1  1.50       -34.5141   6.0000                                                             
     4  2  2.50        -3.0408   4.0000                                                             
     4  3  2.50        -1.3606   0.0000                                                             
   Description                                                                                      
     l       E           TYP  RCUT    TYP  RCUT                                                     
     0    -58.3859094     23  2.200                                                                 
     0     -3.9816262     23  2.200                                                                 
     1    -34.5140738     23  2.200                                                                 
     1     13.6058260     23  2.200                                                                 
     2     -3.0408010     23  2.200                                                                 
     2     -0.1283038     23  2.200                                                                 
     3     -1.3605826     23  2.400                                                                 
  local pseudopotential read in
  partial core-charges read in
  partial kinetic energy density read in
  atomic valenz-charges read in
  non local Contribution for L=           0  read in
    real space projection operators read in
  non local Contribution for L=           0  read in
    real space projection operators read in
  non local Contribution for L=           1  read in
    real space projection operators read in
  non local Contribution for L=           1  read in
    real space projection operators read in
  non local Contribution for L=           2  read in
    real space projection operators read in
  non local Contribution for L=           2  read in
    real space projection operators read in
    PAW grid and wavefunctions read in
 
   number of l-projection  operators is LMAX  =           6
   number of lm-projection operators is LMMAX =          18
 
 POTCAR:    PAW_PBE Mo_sv 02Feb2006               
   SHA256 =  2731df97e41766cc617548c5a8267718fdef1f509ac6bafa01e745abea2bdfaa Mo_sv/POTCAR          
   COPYR  = (c) Copyright 02Feb2006 Georg Kresse                                                    
   COPYR  = This file is part of the software VASP. Any use, copying, and all other rights are regul
   COPYR  = If you do not have a valid VASP license, you may not use, copy or distribute this file. 
   VRHFIN =Mo: 4p5s4d                                                                               
   LEXCH  = PE                                                                                      
   EATOM  =  1862.2866 eV,  136.8742 Ry                                                             
                                                                                                    
   TITEL  = PAW_PBE Mo_sv 02Feb2006                                                                 
   LULTRA =        F    use ultrasoft PP ?                                                          
   IUNSCR =        1    unscreen: 0-lin 1-nonlin 2-no                                               
   RPACOR =    2.200    partial core radius                                                         
   POMASS =   95.940; ZVAL   =   14.000    mass and valenz                                          
   RCORE  =    2.500    outmost cutoff radius                                                       
   RWIGS  =    2.750; RWIGS  =    1.455    wigner-seitz radius (au A)                               
   ENMAX  =  242.676; ENMIN  =  182.007 eV                                                          
   ICORE  =        3    local potential                                                             
   LCOR   =        T    correct aug charges                                                         
   LPAW   =        T    paw PP                                                                      
   EAUG   =  446.014                                                                                
   DEXC   =    0.000                                                                                
   RMAX   =    2.563    core radius for proj-oper                                                   
   RAUG   =    1.300    factor for augmentation sphere                                              
   RDEP   =    2.641    radius for radial grids                                                     
   RDEPT  =    2.031    core radius for aug-charge                                                  
                                                                                                    
   Atomic configuration                                                                             
   11 entries                                                                                       
     n  l   j            E        occ.                                                              
     1  0  0.50    -19819.0341   2.0000                                                             
     2  0  0.50     -2799.0127   2.0000                                                             
     2  1  1.50     -2502.0276   6.0000                                                             
     3  0  0.50      -476.4449   2.0000                                                             
     3  1  1.50      -379.1496   6.0000                                                             
     3  2  2.50      -220.9367  10.0000                                                             
     4  0  0.50       -64.3378   2.0000                                                             
     5  0  0.50        -4.0862   1.0000                                                             
     4  1  1.50       -38.4773   6.0000                                                             
     4  2  2.50        -3.7535   5.0000                                                             
     4  3  2.50        -1.3606   0.0000                                                             
   Description                                                                                      
     l       E           TYP  RCUT    TYP  RCUT                                                     
     0    -64.3377829     23  2.100                                                                 
     0     -4.0861640     23  2.400                                                                 
     1    -38.4772993     23  2.100                                                                 
     1     13.6058260     23  2.100                                                                 
     2     -3.7534941     23  2.400                                                                 
     2     -5.1140767     23  2.400                                                                 
     3     -4.0817478     23  2.500                                                                 
  local pseudopotential read in
  partial core-charges read in
  partial kinetic energy density read in
  atomic valenz-charges read in
  non local Contribution for L=           0  read in
    real space projection operators read in
  non local Contribution for L=           0  read in
    real space projection operators read in
  non local Contribution for L=           1  read in
    real space projection operators read in
  non local Contribution for L=           1  read in
    real space projection operators read in
  non local Contribution for L=           2  read in
    real space projection operators read in
  non local Contribution for L=           2  read in
    real space projection operators read in
    PAW grid and wavefunctions read in
 
   number of l-projection  operators is LMAX  =           6
   number of lm-projection operators is LMMAX =          18
 
 POTCAR:    PAW_PBE Ta_pv 07Sep2000               
   SHA256 =  00d0a14a36c127416459414afb8617d9754996fffa60a2465888e660b20a452f Ta_pv/POTCAR          
   COPYR  = (c) Copyright 07Sep2000 Georg Kresse                                                    
   COPYR  = This file is part of the software VASP. Any use, copying, and all other rights are regul
   COPYR  = If you do not have a valid VASP license, you may not use, copy or distribute this file. 
   VRHFIN =Ta:  5p6s5d                                                                              
   LEXCH  = PE                                                                                      
   EATOM  =  1047.1984 eV,   76.9669 Ry                                                             
                                                                                                    
   TITEL  = PAW_PBE Ta_pv 07Sep2000                                                                 
   LULTRA =        F    use ultrasoft PP ?                                                          
   IUNSCR =        1    unscreen: 0-lin 1-nonlin 2-no                                               
   RPACOR =    2.330    partial core radius                                                         
   POMASS =  180.948; ZVAL   =   11.000    mass and valenz                                          
   RCORE  =    2.500    outmost cutoff radius                                                       
   RWIGS  =    2.840; RWIGS  =    1.503    wigner-seitz radius (au A)                               
   ENMAX  =  223.667; ENMIN  =  167.750 eV                                                          
   RCLOC  =    2.205    cutoff for local pot                                                        
   LCOR   =        T    correct aug charges                                                         
   LPAW   =        T    paw PP                                                                      
   EAUG   =  377.421                                                                                
   DEXC   =    0.000                                                                                
   RMAX   =    2.551    core radius for proj-oper                                                   
   RAUG   =    1.300    factor for augmentation sphere                                              
   RDEP   =    2.526    radius for radial grids                                                     
   RDEPT  =    2.132    core radius for aug-charge                                                  
                                                                                                    
   Atomic configuration                                                                             
   15 entries                                                                                       
     n  l   j            E        occ.                                                              
     1  0  0.50    -67341.2801   2.0000                                                             
     2  0  0.50    -11566.9369   2.0000                                                             
     2  1  1.50    -10134.1175   6.0000                                                             
     3  0  0.50     -2648.5614   2.0000                                                             
     3  1  1.50     -2222.6006   6.0000                                                             
     3  2  2.50     -1726.3114  10.0000                                                             
     4  0  0.50      -538.6957   2.0000                                                             
     4  1  1.50      -399.0125   6.0000                                                             
     4  2  2.50      -220.3955  10.0000                                                             
     4  3  3.50       -23.0371  14.0000                                                             
     5  0  0.50       -71.2900   2.0000                                                             
     5  1  1.50       -37.8224   6.0000                                                             
     5  2  2.50        -2.6455   4.0000                                                             
     6  0  0.50        -4.9623   1.0000                                                             
     5  3  2.50        -1.3606   0.0000                                                             
   Description                                                                                      
     l       E           TYP  RCUT    TYP  RCUT                                                     
     1    -37.8224449     23  2.500                                                                 
     1      1.3605826     23  2.500                                                                 
     2     -2.6454718     23  2.500                                                                 
     2     -0.6258570     23  2.500                                                                 
     0     -4.9622674     23  2.500                                                                 
     0      4.7531427     23  2.500                                                                 
  local pseudopotential read in
  partial core-charges read in
  partial kinetic energy density read in
  atomic valenz-charges read in
  non local Contribution for L=           1  read in
    real space projection operators read in
  non local Contribution for L=           1  read in
    real space projection operators read in
  non local Contribution for L=           2  read in
    real space projection operators read in
  non local Contribution for L=           2  read in
    real space projection operators read in
  non local Contribution for L=           0  read in
    real space projection operators read in
  non local Contribution for L=           0  read in
    real space projection operators read in
    PAW grid and wavefunctions read in
 
   number of l-projection  operators is LMAX  =           6
   number of lm-projection operators is LMMAX =          18
 
 POTCAR:    PAW_PBE W_sv 04Sep2015                
   SHA256 =  931c2d770f65867ef30f3db3421922900fc0890ebac5c3e12f63b6a2064023d7 W_sv/POTCAR           
   COPYR  = (c) Copyright 04Sep2015 Georg Kresse                                                    
   COPYR  = This file is part of the software VASP. Any use, copying, and all other rights are regul
   COPYR  = If you do not have a valid VASP license, you may not use, copy or distribute this file. 
   VRHFIN =W : 5p6s5d                                                                               
   LEXCH  = PE                                                                                      
   EATOM  =  1865.5791 eV,  137.1162 Ry                                                             
                                                                                                    
   TITEL  = PAW_PBE W_sv 04Sep2015                                                                  
   LULTRA =        F    use ultrasoft PP ?                                                          
   IUNSCR =        1    unscreen: 0-lin 1-nonlin 2-no                                               
   RPACOR =    2.330    partial core radius                                                         
   POMASS =  183.850; ZVAL   =   14.000    mass and valenz                                          
   RCORE  =    2.500    outmost cutoff radius                                                       
   RWIGS  =    2.750; RWIGS  =    1.455    wigner-seitz radius (au A)                               
   ENMAX  =  223.057; ENMIN  =  167.293 eV                                                          
   ICORE  =        3    local potential                                                             
   LCOR   =        T    correct aug charges                                                         
   LPAW   =        T    paw PP                                                                      
   EAUG   =  373.438                                                                                
   DEXC   =    0.000                                                                                
   RMAX   =    2.565    core radius for proj-oper                                                   
   RAUG   =    1.300    factor for augmentation sphere                                              
   RDEP   =    2.539    radius for radial grids                                                     
   RDEPT  =    2.126    core radius for aug-charge                                                  
                                                                                                    
   Atomic configuration                                                                             
   15 entries                                                                                       
     n  l   j            E        occ.                                                              
     1  0  0.50    -69465.5834   2.0000                                                             
     2  0  0.50    -11986.2640   2.0000                                                             
     2  1  1.50    -10479.8613   6.0000                                                             
     3  0  0.50     -2759.0756   2.0000                                                             
     3  1  1.50     -2313.1855   6.0000                                                             
     3  2  2.50     -1801.1183  10.0000                                                             
     4  0  0.50      -567.6789   2.0000                                                             
     4  1  1.50      -421.4692   6.0000                                                             
     4  2  2.50      -236.3471  10.0000                                                             
     4  3  3.50       -31.2665  14.0000                                                             
     5  0  0.50       -77.1084   2.0000                                                             
     6  0  0.50        -5.1438   1.0000                                                             
     5  1  1.50       -41.3856   6.0000                                                             
     5  2  2.50        -3.3185   5.0000                                                             
     5  3  2.50        -1.3606   0.0000                                                             
   Description                                                                                      
     l       E           TYP  RCUT    TYP  RCUT                                                     
     0    -77.1084470     23  2.100                                                                 
     0     -5.1437956     23  2.300                                                                 
     1    -41.3855615     23  2.500                                                                 
     1     -2.7211652     23  2.500                                                                 
     2     -3.3185025     23  2.500                                                                 
     2     -1.5965151     23  2.500                                                                 
     3     -1.3605826     23  2.500                                                                 
  local pseudopotential read in
  partial core-charges read in
  partial kinetic energy density read in
  kinetic energy density of atom read in
  atomic valenz-charges read in
  non local Contribution for L=           0  read in
    real space projection operators read in
  non local Contribution for L=           0  read in
    real space projection operators read in
  non local Contribution for L=           1  read in
    real space projection operators read in
  non local Contribution for L=           1  read in
    real space projection operators read in
  non local Contribution for L=           2  read in
    real space projection operators read in
  non local Contribution for L=           2  read in
    real space projection operators read in
    PAW grid and wavefunctions read in
 
   number of l-projection  operators is LMAX  =           6
   number of lm-projection operators is LMMAX =          18
 
 -----------------------------------------------------------------------------
|                                                                             |
|               ----> ADVICE to this user running VASP <----                  |
|                                                                             |
|     You have a (more or less) 'large supercell' and for larger cells it     |
|     might be more efficient to use real-space projection operators.         |
|     Therefore, try LREAL= Auto in the INCAR file.                           |
|     Mind: For very accurate calculation, you might also keep the            |
|     reciprocal projection scheme (i.e. LREAL=.FALSE.).                      |
|                                                                             |
 -----------------------------------------------------------------------------

  PAW_PBE Nb_sv 25May2007               :
 energy of atom  1       EATOM=-1555.1913
 kinetic energy error for atom=    0.2155 (will be added to EATOM!!)
  PAW_PBE Mo_sv 02Feb2006               :
 energy of atom  2       EATOM=-1862.2866
 kinetic energy error for atom=    0.1102 (will be added to EATOM!!)
  PAW_PBE Ta_pv 07Sep2000               :
 energy of atom  3       EATOM=-1047.1984
 kinetic energy error for atom=    0.0394 (will be added to EATOM!!)
  PAW_PBE W_sv 04Sep2015                :
 energy of atom  4       EATOM=-1865.5791
 kinetic energy error for atom=    0.0589 (will be added to EATOM!!)
 
 
 POSCAR: Nb-Mo-Ta-W alloy
  positions in direct lattice
  No initial velocities read in
 exchange correlation table for  LEXCH =        8
   RHO(1)=    0.500       N(1)  =     2000
   RHO(2)=  100.500       N(2)  =     4000
 


--------------------------------------------------------------------------------------------------------


 ion  position               nearest neighbor table
   1  0.375  0.125  0.750-   4 2.85   7 2.85  16 2.85  17 2.85  23 2.85  25 2.85  26 2.85  43 2.85

   2  0.375  0.875  0.750-   4 2.85  10 2.85  17 2.85  23 2.85  36 2.85  37 2.85  43 2.85  49 2.85
                            44 3.29
   3  0.125  0.125  0.750-   4 2.85   7 2.85  12 2.85  23 2.85  26 2.85  27 2.85  42 2.85  60 2.85
                            44 3.29
   4  0.250  0.000  0.500-   1 2.85   2 2.85   3 2.85   5 2.85  20 2.85  44 2.85  53 2.85  54 2.85

   5  0.375  0.875  0.250-   4 2.85  10 2.85  17 2.85  23 2.85  36 2.85  37 2.85  43 2.85  49 2.85
                            38 3.29
   6  0.000  0.750  0.000-  13 2.85  14 2.85  15 2.85  34 2.85  39 2.85  44 2.85  45 2.85  54 2.85

   7  0.250  0.250  0.500-   1 2.85   3 2.85   8 2.85  20 2.85  28 2.85  53 2.85  61 2.85  64 2.85

   8  0.125  0.375  0.250-   7 2.85  12 2.85  19 2.85  21 2.85  26 2.85  40 2.85  42 2.85  59 2.85

   9  0.000  0.750  0.500-  13 2.85  14 2.85  15 2.85  34 2.85  39 2.85  44 2.85  45 2.85  54 2.85
                            40 3.29
  10  0.250  0.750  0.500-   2 2.85   5 2.85  14 2.85  15 2.85  44 2.85  51 2.85  54 2.85  62 2.85
                            37 3.29
  11  0.875  0.125  0.750-  12 2.85  27 2.85  30 2.85  42 2.85  50 2.85  56 2.85  60 2.85  63 2.85

  12  0.000  0.250  0.500-   3 2.85   8 2.85  11 2.85  20 2.85  22 2.85  31 2.85  47 2.85  64 2.85
                            40 3.29  42 3.29  42 3.29
  13  0.875  0.625  0.750-   6 2.85   9 2.85  21 2.85  29 2.85  40 2.85  41 2.85  52 2.85  57 2.85
                            39 3.29  39 3.29
  14  0.125  0.625  0.750-   6 2.85   9 2.85  10 2.85  19 2.85  21 2.85  40 2.85  49 2.85  59 2.85
                            44 3.29
  15  0.125  0.625  0.250-   6 2.85   9 2.85  10 2.85  19 2.85  21 2.85  40 2.85  49 2.85  59 2.85
                            39 3.29
  16  0.500  0.250  0.500-   1 2.85  18 2.85  24 2.85  28 2.85  32 2.85  33 2.85  53 2.85  61 2.85
                            35 3.29
  17  0.500  0.000  0.500-   1 2.85   2 2.85   5 2.85  18 2.85  24 2.85  38 2.85  53 2.85  55 2.85
                            37 3.29  43 3.29  43 3.29
  18  0.625  0.125  0.750-  16 2.85  17 2.85  25 2.85  30 2.85  43 2.85  50 2.85  56 2.85  63 2.85

  19  0.250  0.500  0.500-   8 2.85  14 2.85  15 2.85  28 2.85  51 2.85  61 2.85  62 2.85  64 2.85
                            35 3.29  40 3.29
  20  0.125  0.125  0.250-   4 2.85   7 2.85  12 2.85  23 2.85  26 2.85  27 2.85  42 2.85  60 2.85
                            53 3.29  54 3.29  22 3.29
  21  0.000  0.500  0.000-   8 2.85  13 2.85  14 2.85  15 2.85  31 2.85  39 2.85  47 2.85  64 2.85
                            42 3.29  40 3.29  59 3.29  41 3.29  40 3.29
  22  0.875  0.125  0.250-  12 2.85  27 2.85  30 2.85  42 2.85  50 2.85  56 2.85  60 2.85  63 2.85
                            24 3.29  34 3.29  20 3.29  47 3.29
  23  0.250  0.000  0.000-   1 2.85   2 2.85   3 2.85   5 2.85  20 2.85  44 2.85  53 2.85  54 2.85
                            26 3.29  49 3.29  27 3.29  43 3.29
  24  0.625  0.125  0.250-  16 2.85  17 2.85  25 2.85  30 2.85  43 2.85  50 2.85  56 2.85  63 2.85
                            33 3.29  53 3.29  38 3.29  22 3.29
  25  0.500  0.250  0.000-   1 2.85  18 2.85  24 2.85  28 2.85  32 2.85  33 2.85  53 2.85  61 2.85
                            48 3.29  50 3.29  26 3.29  43 3.29
  26  0.250  0.250  0.000-   1 2.85   3 2.85   8 2.85  20 2.85  28 2.85  53 2.85  61 2.85  64 2.85
                            25 3.29  59 3.29  23 3.29  42 3.29
  27  0.000  0.000  0.000-   3 2.85  11 2.85  20 2.85  22 2.85  34 2.85  44 2.85  45 2.85  54 2.85
                            30 3.29  23 3.29  42 3.29  60 3.29  60 3.29
  28  0.375  0.375  0.250-   7 2.85  16 2.85  19 2.85  25 2.85  26 2.85  35 2.85  48 2.85  59 2.85
                            51 3.29  53 3.29  33 3.29  61 3.29  61 3.29
  29  0.750  0.750  0.000-  13 2.85  34 2.85  38 2.85  39 2.85  45 2.85  46 2.85  55 2.85  58 2.85
                            36 3.29  41 3.29  57 3.29  30 3.29  57 3.29
  30  0.750  0.000  0.000-  11 2.85  18 2.85  22 2.85  24 2.85  34 2.85  38 2.85  45 2.85  55 2.85
                            43 3.29  27 3.29  50 3.29  29 3.29  63 3.29  63 3.29
  31  0.875  0.375  0.750-  12 2.85  21 2.85  40 2.85  41 2.85  42 2.85  50 2.85  52 2.85  56 2.85
                            47 3.29  32 3.29  64 3.29  47 3.29
  32  0.625  0.375  0.750-  16 2.85  25 2.85  35 2.85  41 2.85  48 2.85  50 2.85  52 2.85  56 2.85
                            31 3.29  33 3.29  58 3.29  61 3.29  33 3.29
  33  0.625  0.375  0.250-  16 2.85  25 2.85  35 2.85  41 2.85  48 2.85  50 2.85  52 2.85  56 2.85
                            47 3.29  32 3.29  24 3.29  28 3.29  46 3.29  32 3.29
  34  0.875  0.875  0.250-   6 2.85   9 2.85  27 2.85  29 2.85  30 2.85  57 2.85  60 2.85  63 2.85
                            45 3.29  54 3.29  22 3.29  38 3.29  39 3.29  45 3.29
  35  0.500  0.500  0.500-  28 2.85  32 2.85  33 2.85  46 2.85  51 2.85  58 2.85  61 2.85  62 2.85
                            16 3.29  52 3.29  37 3.29  19 3.29  48 3.29  48 3.29
  36  0.500  0.750  0.000-   2 2.85   5 2.85  38 2.85  46 2.85  51 2.85  55 2.85  58 2.85  62 2.85
                            49 3.29  29 3.29  43 3.29  37 3.29  48 3.29  37 3.29
  37  0.500  0.750  0.500-   2 2.85   5 2.85  38 2.85  46 2.85  51 2.85  55 2.85  58 2.85  62 2.85
                            35 3.29  36 3.29  57 3.29  10 3.29  17 3.29  36 3.29
  38  0.625  0.875  0.250-  17 2.85  29 2.85  30 2.85  36 2.85  37 2.85  43 2.85  57 2.85  63 2.85
                            34 3.29  46 3.29  55 3.29   5 3.29  24 3.29  55 3.29
  39  0.875  0.625  0.250-   6 2.85   9 2.85  21 2.85  29 2.85  40 2.85  41 2.85  52 2.85  57 2.85
                            15 3.29  46 3.29  47 3.29  34 3.29  13 3.29  13 3.29
  40  0.000  0.500  0.500-   8 2.85  13 2.85  14 2.85  15 2.85  31 2.85  39 2.85  47 2.85  64 2.85
                            12 3.29   9 3.29  19 3.29  52 3.29  21 3.29  21 3.29
  41  0.750  0.500  0.000-  13 2.85  31 2.85  32 2.85  33 2.85  39 2.85  46 2.85  47 2.85  58 2.85
                            29 3.29  48 3.29  50 3.29  52 3.29  21 3.29  52 3.29
  42  0.000  0.250  0.000-   3 2.85   8 2.85  11 2.85  20 2.85  22 2.85  31 2.85  47 2.85  64 2.85
                            27 3.29  21 3.29  12 3.29  50 3.29  26 3.29  12 3.29
  43  0.500  0.000  0.000-   1 2.85   2 2.85   5 2.85  18 2.85  24 2.85  38 2.85  53 2.85  55 2.85
                            30 3.29  36 3.29  23 3.29  17 3.29  25 3.29  17 3.29
  44  0.125  0.875  0.750-   4 2.85   6 2.85   9 2.85  10 2.85  23 2.85  27 2.85  49 2.85  60 2.85
                             3 3.29  45 3.29  14 3.29  54 3.29   2 3.29  54 3.29
  45  0.875  0.875  0.750-   6 2.85   9 2.85  27 2.85  29 2.85  30 2.85  57 2.85  60 2.85  63 2.85
                            34 3.29  44 3.29  55 3.29  34 3.29
  46  0.625  0.625  0.250-  29 2.85  35 2.85  36 2.85  37 2.85  41 2.85  48 2.85  52 2.85  57 2.85
                            38 3.29  51 3.29  39 3.29  33 3.29  58 3.29  58 3.29
  47  0.875  0.375  0.250-  12 2.85  21 2.85  40 2.85  41 2.85  42 2.85  50 2.85  52 2.85  56 2.85
                            33 3.29  39 3.29  22 3.29  31 3.29  31 3.29
  48  0.500  0.500  0.000-  28 2.85  32 2.85  33 2.85  46 2.85  51 2.85  58 2.85  61 2.85  62 2.85
                            35 3.29  36 3.29  59 3.29  41 3.29  25 3.29  35 3.29
  49  0.250  0.750  0.000-   2 2.85   5 2.85  14 2.85  15 2.85  44 2.85  51 2.85  54 2.85  62 2.85
                            23 3.29  59 3.29  36 3.29
  50  0.750  0.250  0.000-  11 2.85  18 2.85  22 2.85  24 2.85  31 2.85  32 2.85  33 2.85  47 2.85
                            25 3.29  41 3.29  42 3.29  30 3.29  56 3.29  56 3.29
  51  0.375  0.625  0.250-  10 2.85  19 2.85  35 2.85  36 2.85  37 2.85  48 2.85  49 2.85  59 2.85
                            46 3.29  28 3.29  62 3.29  62 3.29
  52  0.750  0.500  0.500-  13 2.85  31 2.85  32 2.85  33 2.85  39 2.85  46 2.85  47 2.85  58 2.85
                            35 3.29  40 3.29  56 3.29  57 3.29  41 3.29  41 3.29
  53  0.375  0.125  0.250-   4 2.85   7 2.85  16 2.85  17 2.85  23 2.85  25 2.85  26 2.85  43 2.85
                            24 3.29  28 3.29  20 3.29
  54  0.125  0.875  0.250-   4 2.85   6 2.85   9 2.85  10 2.85  23 2.85  27 2.85  49 2.85  60 2.85
                            44 3.29  20 3.29  34 3.29  44 3.29
  55  0.625  0.875  0.750-  17 2.85  29 2.85  30 2.85  36 2.85  37 2.85  43 2.85  57 2.85  63 2.85
                            38 3.29  58 3.29  45 3.29  38 3.29
  56  0.750  0.250  0.500-  11 2.85  18 2.85  22 2.85  24 2.85  31 2.85  32 2.85  33 2.85  47 2.85
                            50 3.29  52 3.29  63 3.29  50 3.29
  57  0.750  0.750  0.500-  13 2.85  34 2.85  38 2.85  39 2.85  45 2.85  46 2.85  55 2.85  58 2.85
                            52 3.29  29 3.29  37 3.29  63 3.29  29 3.29
  58  0.625  0.625  0.750-  29 2.85  35 2.85  36 2.85  37 2.85  41 2.85  48 2.85  52 2.85  57 2.85
                            46 3.29  55 3.29  32 3.29  62 3.29  46 3.29
  59  0.250  0.500  0.000-   8 2.85  14 2.85  15 2.85  28 2.85  51 2.85  61 2.85  62 2.85  64 2.85
                            26 3.29  21 3.29  48 3.29  49 3.29
  60  0.000  0.000  0.500-   3 2.85  11 2.85  20 2.85  22 2.85  34 2.85  44 2.85  45 2.85  54 2.85
                            27 3.29  63 3.29  27 3.29
  61  0.375  0.375  0.750-   7 2.85  16 2.85  19 2.85  25 2.85  26 2.85  35 2.85  48 2.85  59 2.85
                            32 3.29  28 3.29  62 3.29  64 3.29  28 3.29
  62  0.375  0.625  0.750-  10 2.85  19 2.85  35 2.85  36 2.85  37 2.85  48 2.85  49 2.85  59 2.85
                            58 3.29  51 3.29  61 3.29  51 3.29
  63  0.750  0.000  0.500-  11 2.85  18 2.85  22 2.85  24 2.85  34 2.85  38 2.85  45 2.85  55 2.85
                            30 3.29  56 3.29  57 3.29  60 3.29  30 3.29
  64  0.125  0.375  0.750-   7 2.85  12 2.85  19 2.85  21 2.85  26 2.85  40 2.85  42 2.85  59 2.85
                            31 3.29  61 3.29
 
  LATTYP: Found a simple tetragonal cell.
 ALAT       =    13.1600000000
 C/A-ratio  =     0.5000000000
  
  Lattice vectors:
  
 A1 = (  13.1600000000,   0.0000000000,   0.0000000000)
 A2 = (   0.0000000000,  13.1600000000,   0.0000000000)
 A3 = (   0.0000000000,   0.0000000000,   6.5800000000)


Analysis of symmetry for initial positions (statically):
=====================================================================
 Subroutine PRICEL returns:
 Original cell was already a primitive cell.
 

 Routine SETGRP: Setting up the symmetry group for a 
 simple tetragonal supercell.


 Subroutine GETGRP returns: Found  1 space group operations
 (whereof  1 operations were pure point group operations)
 out of a pool of 16 trial point group operations.


The static configuration has the point symmetry C_1 .


Analysis of symmetry for dynamics (positions and initial velocities):
=====================================================================
 Subroutine PRICEL returns:
 Original cell was already a primitive cell.
 

 Routine SETGRP: Setting up the symmetry group for a 
 simple tetragonal supercell.


 Subroutine GETGRP returns: Found  1 space group operations
 (whereof  1 operations were pure point group operations)
 out of a pool of 16 trial point group operations.


The dynamic configuration has the point symmetry C_1 .


 Subroutine INISYM returns: Found  1 space group operations
 (whereof  1 operations are pure point group operations),
 and found     1 'primitive' translations


----------------------------------------------------------------------------------------

                                     Primitive cell                                     

  volume of cell :    1139.5612

  direct lattice vectors                    reciprocal lattice vectors
    13.160000000  0.000000000  0.000000000     0.075987842  0.000000000  0.000000000
     0.000000000 13.160000000  0.000000000     0.000000000  0.075987842  0.000000000
     0.000000000  0.000000000  6.580000000     0.000000000  0.000000000  0.151975684

  length of vectors
    13.160000000 13.160000000  6.580000000     0.075987842  0.075987842  0.151975684

  position of ions in fractional coordinates (direct lattice)
     0.375000000  0.125000000  0.750000000
     0.375000000  0.875000000  0.750000000
     0.125000000  0.125000000  0.750000000
     0.250000000  0.000000000  0.500000000
     0.375000000  0.875000000  0.250000000
     0.000000000  0.750000000  0.000000000
     0.250000000  0.250000000  0.500000000
     0.125000000  0.375000000  0.250000000
     0.000000000  0.750000000  0.500000000
     0.250000000  0.750000000  0.500000000
     0.875000000  0.125000000  0.750000000
     0.000000000  0.250000000  0.500000000
     0.875000000  0.625000000  0.750000000
     0.125000000  0.625000000  0.750000000
     0.125000000  0.625000000  0.250000000
     0.500000000  0.250000000  0.500000000
     0.500000000  0.000000000  0.500000000
     0.625000000  0.125000000  0.750000000
     0.250000000  0.500000000  0.500000000
     0.125000000  0.125000000  0.250000000
     0.000000000  0.500000000  0.000000000
     0.875000000  0.125000000  0.250000000
     0.250000000  0.000000000  0.000000000
     0.625000000  0.125000000  0.250000000
     0.500000000  0.250000000  0.000000000
     0.250000000  0.250000000  0.000000000
     0.000000000  0.000000000  0.000000000
     0.375000000  0.375000000  0.250000000
     0.750000000  0.750000000  0.000000000
     0.750000000  0.000000000  0.000000000
     0.875000000  0.375000000  0.750000000
     0.625000000  0.375000000  0.750000000
     0.625000000  0.375000000  0.250000000
     0.875000000  0.875000000  0.250000000
     0.500000000  0.500000000  0.500000000
     0.500000000  0.750000000  0.000000000
     0.500000000  0.750000000  0.500000000
     0.625000000  0.875000000  0.250000000
     0.875000000  0.625000000  0.250000000
     0.000000000  0.500000000  0.500000000
     0.750000000  0.500000000  0.000000000
     0.000000000  0.250000000  0.000000000
     0.500000000  0.000000000  0.000000000
     0.125000000  0.875000000  0.750000000
     0.875000000  0.875000000  0.750000000
     0.625000000  0.625000000  0.250000000
     0.875000000  0.375000000  0.250000000
     0.500000000  0.500000000  0.000000000
     0.250000000  0.750000000  0.000000000
     0.750000000  0.250000000  0.000000000
     0.375000000  0.625000000  0.250000000
     0.750000000  0.500000000  0.500000000
     0.375000000  0.125000000  0.250000000
     0.125000000  0.875000000  0.250000000
     0.625000000  0.875000000  0.750000000
     0.750000000  0.250000000  0.500000000
     0.750000000  0.750000000  0.500000000
     0.625000000  0.625000000  0.750000000
     0.250000000  0.500000000  0.000000000
     0.000000000  0.000000000  0.500000000
     0.375000000  0.375000000  0.750000000
     0.375000000  0.625000000  0.750000000
     0.750000000  0.000000000  0.500000000
     0.125000000  0.375000000  0.750000000

  ion indices of the primitive-cell ions
   primitive index   ion index
                 1           1
                 2           2
                 3           3
                 4           4
                 5           5
                 6           6
                 7           7
                 8           8
                 9           9
                10          10
                11          11
                12          12
                13          13
                14          14
                15          15
                16          16
                17          17
                18          18
                19          19
                20          20
                21          21
                22          22
                23          23
                24          24
                25          25
                26          26
                27          27
                28          28
                29          29
                30          30
                31          31
                32          32
                33          33
                34          34
                35          35
                36          36
                37          37
                38          38
                39          39
                40          40
                41          41
                42          42
                43          43
                44          44
                45          45
                46          46
                47          47
                48          48
                49          49
                50          50
                51          51
                52          52
                53          53
                54          54
                55          55
                56          56
                57          57
                58          58
                59          59
                60          60
                61          61
                62          62
                63          63
                64          64

----------------------------------------------------------------------------------------

 
 
 KPOINTS: K-Spacing Value to Generate K-Mesh: 0.03

Automatic generation of k-mesh.
 Grid dimensions read from file:
 generate k-points for:    3    3    5

 Generating k-lattice:

  Cartesian coordinates                     Fractional coordinates (reciprocal lattice)
     0.025329281  0.000000000  0.000000000     0.333333333  0.000000000  0.000000000
     0.000000000  0.025329281  0.000000000     0.000000000  0.333333333  0.000000000
     0.000000000  0.000000000  0.030395137     0.000000000  0.000000000  0.200000000

  Length of vectors
     0.025329281  0.025329281  0.030395137

  Shift w.r.t. Gamma in fractional coordinates (k-lattice)
     0.000000000  0.000000000  0.000000000

 
 Subroutine IBZKPT returns following result:
 ===========================================
 
 Found     23 irreducible k-points:
 
 Following reciprocal coordinates:
            Coordinates               Weight
  0.000000  0.000000  0.000000      1.000000
  0.333333  0.000000  0.000000      2.000000
  0.000000  0.333333  0.000000      2.000000
  0.333333  0.333333  0.000000      2.000000
 -0.333333  0.333333  0.000000      2.000000
  0.000000  0.000000  0.200000      2.000000
  0.333333  0.000000  0.200000      2.000000
  0.000000  0.333333  0.200000      2.000000
 -0.333333  0.000000  0.200000      2.000000
  0.000000 -0.333333  0.200000      2.000000
  0.333333  0.333333  0.200000      2.000000
 -0.333333  0.333333  0.200000      2.000000
 -0.333333 -0.333333  0.200000      2.000000
  0.333333 -0.333333  0.200000      2.000000
  0.000000  0.000000  0.400000      2.000000
  0.333333  0.000000  0.400000      2.000000
  0.000000  0.333333  0.400000      2.000000
 -0.333333  0.000000  0.400000      2.000000
  0.000000 -0.333333  0.400000      2.000000
  0.333333  0.333333  0.400000      2.000000
 -0.333333  0.333333  0.400000      2.000000
 -0.333333 -0.333333  0.400000      2.000000
  0.333333 -0.333333  0.400000      2.000000
 
 Following cartesian coordinates:
            Coordinates               Weight
  0.000000  0.000000  0.000000      1.000000
  0.025329  0.000000  0.000000      2.000000
  0.000000  0.025329  0.000000      2.000000
  0.025329  0.025329  0.000000      2.000000
 -0.025329  0.025329  0.000000      2.000000
  0.000000  0.000000  0.030395      2.000000
  0.025329  0.000000  0.030395      2.000000
  0.000000  0.025329  0.030395      2.000000
 -0.025329  0.000000  0.030395      2.000000
  0.000000 -0.025329  0.030395      2.000000
  0.025329  0.025329  0.030395      2.000000
 -0.025329  0.025329  0.030395      2.000000
 -0.025329 -0.025329  0.030395      2.000000
  0.025329 -0.025329  0.030395      2.000000
  0.000000  0.000000  0.060790      2.000000
  0.025329  0.000000  0.060790      2.000000
  0.000000  0.025329  0.060790      2.000000
 -0.025329  0.000000  0.060790      2.000000
  0.000000 -0.025329  0.060790      2.000000
  0.025329  0.025329  0.060790      2.000000
 -0.025329  0.025329  0.060790      2.000000
 -0.025329 -0.025329  0.060790      2.000000
  0.025329 -0.025329  0.060790      2.000000
 


--------------------------------------------------------------------------------------------------------




 Dimension of arrays:
   k-points           NKPTS =     23   k-points in BZ     NKDIM =     23   number of bands    NBANDS=    504
   number of dos      NEDOS =    301   number of ions     NIONS =     64
   non local maximal  LDIM  =      6   non local SUM 2l+1 LMDIM =     18
   total plane-waves  NPLWV = 176400
   max r-space proj   IRMAX =      1   max aug-charges    IRDMAX=   9034
   dimension x,y,z NGX =    70 NGY =   70 NGZ =   36
   dimension x,y,z NGXF=   140 NGYF=  140 NGZF=   72
   support grid    NGXF=   140 NGYF=  140 NGZF=   72
   ions per type =              19  13  12  20
   NGX,Y,Z   is equivalent  to a cutoff of   8.84,  8.84,  9.10 a.u.
   NGXF,Y,Z  is equivalent  to a cutoff of  17.69, 17.69, 18.19 a.u.

 SYSTEM =  unknown system                          
 POSCAR =  Nb-Mo-Ta-W alloy                        

 Startparameter for this run:
   NWRITE =      2    write-flag & timer
   PREC   = accura    normal or accurate (medium, high low for compatibility)
   ISTART =      0    job   : 0-new  1-cont  2-samecut
   ICHARG =      2    charge: 1-file 2-atom 10-const
   ISPIN  =      1    spin polarized calculation?
   LNONCOLLINEAR =      F non collinear calculations
   LSORBIT =      F    spin-orbit coupling
   INIWAV =      1    electr: 0-lowe 1-rand  2-diag
   LASPH  =      F    aspherical Exc in radial PAW
 Electronic Relaxation 1
   ENCUT  =  250.0 eV  18.37 Ry    4.29 a.u.  16.97 16.97  8.48*2*pi/ulx,y,z
   ENINI  =  250.0     initial cutoff
   ENAUG  =  455.7 eV  augmentation charge cutoff
   NELM   =     80;   NELMIN=  2; NELMDL= -5     # of ELM steps 
   EDIFF  = 0.1E-07   stopping-criterion for ELM
   LREAL  =      F    real-space projection
   NLSPLINE    = F    spline interpolate recip. space projectors
   LCOMPAT=      F    compatible to vasp.4.4
   GGA_COMPAT  = T    GGA compatible to vasp.4.4-vasp.4.6
   LMAXPAW     = -100 max onsite density
   LMAXMIX     =    2 max onsite mixed and CHGCAR
   VOSKOWN=      0    Vosko Wilk Nusair interpolation
   ROPT   =    0.00000   0.00000   0.00000   0.00000
 Ionic relaxation
   EDIFFG = -.1E-01   stopping-criterion for IOM
   NSW    =      0    number of steps for IOM
   NBLOCK =      1;   KBLOCK =      1    inner block; outer block 
   IBRION =     -1    ionic relax: 0-MD 1-quasi-New 2-CG
   NFREE  =      0    steps in history (QN), initial steepest desc. (CG)
   ISIF   =      2    stress and relaxation
   IWAVPR =     10    prediction:  0-non 1-charg 2-wave 3-comb
   ISYM   =      2    0-nonsym 1-usesym 2-fastsym
   LCORR  =      T    Harris-Foulkes like correction to forces

   POTIM  = 0.5000    time-step for ionic-motion
   TEIN   =    0.0    initial temperature
   TEBEG  =    0.0;   TEEND  =   0.0 temperature during run
   SMASS  =  -3.00    Nose mass-parameter (am)
   estimated Nose-frequenzy (Omega)   =  0.10E-29 period in steps = 0.13E+47 mass=  -0.396E-26a.u.
   SCALEE = 1.0000    scale energy and forces
   NPACO  =    256;   APACO  = 10.0  distance and # of slots for P.C.
   PSTRESS=    0.0 pullay stress

  Mass of Ions in am
   POMASS =  92.91 95.94180.95183.85
  Ionic Valenz
   ZVAL   =  13.00 14.00 11.00 14.00
  Atomic Wigner-Seitz radii
   RWIGS  =  -1.00 -1.00 -1.00 -1.00
  virtual crystal weights 
   VCA    =   1.00  1.00  1.00  1.00
   NELECT =     841.0000    total number of electrons
   NUPDOWN=      -1.0000    fix difference up-down

 DOS related values:
   EMIN   =  10.00;   EMAX   =-10.00  energy-range for DOS
   EFERMI =   0.00
   ISMEAR =     0;   SIGMA  =   0.02  broadening in eV -4-tet -1-fermi 0-gaus

 Electronic relaxation 2 (details)
   IALGO  =     38    algorithm
   LDIAG  =      T    sub-space diagonalisation (order eigenvalues)
   LSUBROT=      F    optimize rotation matrix (better conditioning)
   TURBO    =      0    0=normal 1=particle mesh
   IRESTART =      0    0=no restart 2=restart with 2 vectors
   NREBOOT  =      0    no. of reboots
   NMIN     =      0    reboot dimension
   EREF     =   0.00    reference energy to select bands
   IMIX   =      4    mixing-type and parameters
     AMIX     =   0.40;   BMIX     =  1.00
     AMIX_MAG =   1.60;   BMIX_MAG =  1.00
     AMIN     =   0.10
     WC   =   100.;   INIMIX=   1;  MIXPRE=   1;  MAXMIX= -45

 Intra band minimization:
   WEIMIN = 0.0000     energy-eigenvalue tresh-hold
   EBREAK =  0.50E-11  absolut break condition
   DEPER  =   0.30     relativ break condition  

   TIME   =   0.40     timestep for ELM

  volume/ion in A,a.u.               =      17.81       120.16
  Fermi-wavevector in a.u.,A,eV,Ry     =   1.479429  2.795716 29.779230  2.188712
  Thomas-Fermi vector in A             =   2.593588
 
 Write flags
   LWAVE        =      F    write WAVECAR
   LDOWNSAMPLE  =      F    k-point downsampling of WAVECAR
   LCHARG       =      F    write CHGCAR
   LVTOT        =      F    write LOCPOT, total local potential
   LVHAR        =      F    write LOCPOT, Hartree potential only
   LELF         =      F    write electronic localiz. function (ELF)
   LORBIT       =      0    0 simple, 1 ext, 2 COOP (PROOUT), +10 PAW based schemes


 Dipole corrections
   LMONO  =      F    monopole corrections only (constant potential shift)
   LDIPOL =      F    correct potential (dipole corrections)
   IDIPOL =      0    1-x, 2-y, 3-z, 4-all directions 
   EPSILON=  1.0000000 bulk dielectric constant

 Core level calculations are selected ICORELEVEL =  1
 Exchange correlation treatment:
   GGA     =    PE    GGA type
   LEXCH   =     8    internal setting for exchange type
   LIBXC   =     F    Libxc                    
   VOSKOWN =     0    Vosko Wilk Nusair interpolation
   LHFCALC =     F    Hartree Fock is set to
   LHFONE  =     F    Hartree Fock one center treatment
   AEXX    =    0.0000 exact exchange contribution

 Linear response parameters
   LEPSILON=     F    determine dielectric tensor
   LRPA    =     F    only Hartree local field effects (RPA)
   LNABLA  =     F    use nabla operator in PAW spheres
   LVEL    =     F    velocity operator in full k-point grid
   CSHIFT  =0.1000    complex shift for real part using Kramers Kronig
   OMEGAMAX=  -1.0    maximum frequency
   DEG_THRESHOLD= 0.2000000E-02 threshold for treating states as degnerate
   RTIME   =   -0.100 relaxation time in fs
  (WPLASMAI=    0.000 imaginary part of plasma frequency in eV, 0.658/RTIME)
   DFIELD  = 0.0000000 0.0000000 0.0000000 field for delta impulse in time
 
  Optional k-point grid parameters
   LKPOINTS_OPT  =     F    use optional k-point grid
   KPOINTS_OPT_MODE=     1    mode for optional k-point grid
 
 Orbital magnetization related:
   ORBITALMAG=     F  switch on orbital magnetization
   LCHIMAG   =     F  perturbation theory with respect to B field
   DQ        =  0.001000  dq finite difference perturbation B field
   LLRAUG    =     F  two centre corrections for induced B field



--------------------------------------------------------------------------------------------------------


 Static calculation
 charge density and potential will be updated during run
 non-spin polarized calculation
 Variant of blocked Davidson
 Davidson routine will perform the subspace rotation
 perform sub-space diagonalisation
    after iterative eigenvector-optimisation
 modified Broyden-mixing scheme, WC =      100.0
 initial mixing is a Kerker type mixing with AMIX =  0.4000 and BMIX =      1.0000
 Hartree-type preconditioning will be used
 using additional bands           83
 reciprocal scheme for non local part
 use partial core corrections
 calculate Harris-corrections to forces 
   (improved forces if not selfconsistent)
 use gradient corrections 
 use of overlap-Matrix (Vanderbilt PP)
 Gauss-broadening in eV      SIGMA  =   0.02


--------------------------------------------------------------------------------------------------------


  energy-cutoff  :      250.00
  volume of cell :     1139.56
      direct lattice vectors                 reciprocal lattice vectors
    13.160000000  0.000000000  0.000000000     0.075987842  0.000000000  0.000000000
     0.000000000 13.160000000  0.000000000     0.000000000  0.075987842  0.000000000
     0.000000000  0.000000000  6.580000000     0.000000000  0.000000000  0.151975684

  length of vectors
    13.160000000 13.160000000  6.580000000     0.075987842  0.075987842  0.151975684


 
 k-points in units of 2pi/SCALE and weight: K-Spacing Value to Generate K-Mesh: 0.03
   0.00000000  0.00000000  0.00000000       0.022
   0.02532928  0.00000000  0.00000000       0.044
   0.00000000  0.02532928  0.00000000       0.044
   0.02532928  0.02532928  0.00000000       0.044
  -0.02532928  0.02532928  0.00000000       0.044
   0.00000000  0.00000000  0.03039514       0.044
   0.02532928  0.00000000  0.03039514       0.044
   0.00000000  0.02532928  0.03039514       0.044
  -0.02532928  0.00000000  0.03039514       0.044
   0.00000000 -0.02532928  0.03039514       0.044
   0.02532928  0.02532928  0.03039514       0.044
  -0.02532928  0.02532928  0.03039514       0.044
  -0.02532928 -0.02532928  0.03039514       0.044
   0.02532928 -0.02532928  0.03039514       0.044
   0.00000000  0.00000000  0.06079027       0.044
   0.02532928  0.00000000  0.06079027       0.044
   0.00000000  0.02532928  0.06079027       0.044
  -0.02532928  0.00000000  0.06079027       0.044
   0.00000000 -0.02532928  0.06079027       0.044
   0.02532928  0.02532928  0.06079027       0.044
  -0.02532928  0.02532928  0.06079027       0.044
  -0.02532928 -0.02532928  0.06079027       0.044
   0.02532928 -0.02532928  0.06079027       0.044
 
 k-points in reciprocal lattice and weights: K-Spacing Value to Generate K-Mesh: 0.03
   0.00000000  0.00000000  0.00000000       0.022
   0.33333333  0.00000000  0.00000000       0.044
   0.00000000  0.33333333  0.00000000       0.044
   0.33333333  0.33333333  0.00000000       0.044
  -0.33333333  0.33333333  0.00000000       0.044
   0.00000000  0.00000000  0.20000000       0.044
   0.33333333  0.00000000  0.20000000       0.044
   0.00000000  0.33333333  0.20000000       0.044
  -0.33333333  0.00000000  0.20000000       0.044
   0.00000000 -0.33333333  0.20000000       0.044
   0.33333333  0.33333333  0.20000000       0.044
  -0.33333333  0.33333333  0.20000000       0.044
  -0.33333333 -0.33333333  0.20000000       0.044
   0.33333333 -0.33333333  0.20000000       0.044
   0.00000000  0.00000000  0.40000000       0.044
   0.33333333  0.00000000  0.40000000       0.044
   0.00000000  0.33333333  0.40000000       0.044
  -0.33333333  0.00000000  0.40000000       0.044
   0.00000000 -0.33333333  0.40000000       0.044
   0.33333333  0.33333333  0.40000000       0.044
  -0.33333333  0.33333333  0.40000000       0.044
  -0.33333333 -0.33333333  0.40000000       0.044
   0.33333333 -0.33333333  0.40000000       0.044
 
 position of ions in fractional coordinates (direct lattice) 
   0.37500000  0.12500000  0.75000000
   0.37500000  0.87500000  0.75000000
   0.12500000  0.12500000  0.75000000
   0.25000000  0.00000000  0.50000000
   0.37500000  0.87500000  0.25000000
   0.00000000  0.75000000  0.00000000
   0.25000000  0.25000000  0.50000000
   0.12500000  0.37500000  0.25000000
   0.00000000  0.75000000  0.50000000
   0.25000000  0.75000000  0.50000000
   0.87500000  0.12500000  0.75000000
   0.00000000  0.25000000  0.50000000
   0.87500000  0.62500000  0.75000000
   0.12500000  0.62500000  0.75000000
   0.12500000  0.62500000  0.25000000
   0.50000000  0.25000000  0.50000000
   0.50000000  0.00000000  0.50000000
   0.62500000  0.12500000  0.75000000
   0.25000000  0.50000000  0.50000000
   0.12500000  0.12500000  0.25000000
   0.00000000  0.50000000  0.00000000
   0.87500000  0.12500000  0.25000000
   0.25000000  0.00000000  0.00000000
   0.62500000  0.12500000  0.25000000
   0.50000000  0.25000000  0.00000000
   0.25000000  0.25000000  0.00000000
   0.00000000  0.00000000  0.00000000
   0.37500000  0.37500000  0.25000000
   0.75000000  0.75000000  0.00000000
   0.75000000  0.00000000  0.00000000
   0.87500000  0.37500000  0.75000000
   0.62500000  0.37500000  0.75000000
   0.62500000  0.37500000  0.25000000
   0.87500000  0.87500000  0.25000000
   0.50000000  0.50000000  0.50000000
   0.50000000  0.75000000  0.00000000
   0.50000000  0.75000000  0.50000000
   0.62500000  0.87500000  0.25000000
   0.87500000  0.62500000  0.25000000
   0.00000000  0.50000000  0.50000000
   0.75000000  0.50000000  0.00000000
   0.00000000  0.25000000  0.00000000
   0.50000000  0.00000000  0.00000000
   0.12500000  0.87500000  0.75000000
   0.87500000  0.87500000  0.75000000
   0.62500000  0.62500000  0.25000000
   0.87500000  0.37500000  0.25000000
   0.50000000  0.50000000  0.00000000
   0.25000000  0.75000000  0.00000000
   0.75000000  0.25000000  0.00000000
   0.37500000  0.62500000  0.25000000
   0.75000000  0.50000000  0.50000000
   0.37500000  0.12500000  0.25000000
   0.12500000  0.87500000  0.25000000
   0.62500000  0.87500000  0.75000000
   0.75000000  0.25000000  0.50000000
   0.75000000  0.75000000  0.50000000
   0.62500000  0.62500000  0.75000000
   0.25000000  0.50000000  0.00000000
   0.00000000  0.00000000  0.50000000
   0.37500000  0.37500000  0.75000000
   0.37500000  0.62500000  0.75000000
   0.75000000  0.00000000  0.50000000
   0.12500000  0.37500000  0.75000000
 
 position of ions in cartesian coordinates  (Angst):
   4.93500000  1.64500000  4.93500000
   4.93500000 11.51500000  4.93500000
   1.64500000  1.64500000  4.93500000
   3.29000000  0.00000000  3.29000000
   4.93500000 11.51500000  1.64500000
   0.00000000  9.87000000  0.00000000
   3.29000000  3.29000000  3.29000000
   1.64500000  4.93500000  1.64500000
   0.00000000  9.87000000  3.29000000
   3.29000000  9.87000000  3.29000000
  11.51500000  1.64500000  4.93500000
   0.00000000  3.29000000  3.29000000
  11.51500000  8.22500000  4.93500000
   1.64500000  8.22500000  4.93500000
   1.64500000  8.22500000  1.64500000
   6.58000000  3.29000000  3.29000000
   6.58000000  0.00000000  3.29000000
   8.22500000  1.64500000  4.93500000
   3.29000000  6.58000000  3.29000000
   1.64500000  1.64500000  1.64500000
   0.00000000  6.58000000  0.00000000
  11.51500000  1.64500000  1.64500000
   3.29000000  0.00000000  0.00000000
   8.22500000  1.64500000  1.64500000
   6.58000000  3.29000000  0.00000000
   3.29000000  3.29000000  0.00000000
   0.00000000  0.00000000  0.00000000
   4.93500000  4.93500000  1.64500000
   9.87000000  9.87000000  0.00000000
   9.87000000  0.00000000  0.00000000
  11.51500000  4.93500000  4.93500000
   8.22500000  4.93500000  4.93500000
   8.22500000  4.93500000  1.64500000
  11.51500000 11.51500000  1.64500000
   6.58000000  6.58000000  3.29000000
   6.58000000  9.87000000  0.00000000
   6.58000000  9.87000000  3.29000000
   8.22500000 11.51500000  1.64500000
  11.51500000  8.22500000  1.64500000
   0.00000000  6.58000000  3.29000000
   9.87000000  6.58000000  0.00000000
   0.00000000  3.29000000  0.00000000
   6.58000000  0.00000000  0.00000000
   1.64500000 11.51500000  4.93500000
  11.51500000 11.51500000  4.93500000
   8.22500000  8.22500000  1.64500000
  11.51500000  4.93500000  1.64500000
   6.58000000  6.58000000  0.00000000
   3.29000000  9.87000000  0.00000000
   9.87000000  3.29000000  0.00000000
   4.93500000  8.22500000  1.64500000
   9.87000000  6.58000000  3.29000000
   4.93500000  1.64500000  1.64500000
   1.64500000 11.51500000  1.64500000
   8.22500000 11.51500000  4.93500000
   9.87000000  3.29000000  3.29000000
   9.87000000  9.87000000  3.29000000
   8.22500000  8.22500000  4.93500000
   3.29000000  6.58000000  0.00000000
   0.00000000  0.00000000  3.29000000
   4.93500000  4.93500000  4.93500000
   4.93500000  8.22500000  4.93500000
   9.87000000  0.00000000  3.29000000
   1.64500000  4.93500000  4.93500000
 


--------------------------------------------------------------------------------------------------------


 k-point   1 :   0.0000 0.0000 0.0000  plane waves:   10181
 k-point   2 :   0.3333 0.0000 0.0000  plane waves:   10238
 k-point   3 :   0.0000 0.3333 0.0000  plane waves:   10238
 k-point   4 :   0.3333 0.3333 0.0000  plane waves:   10248
 k-point   5 :  -0.3333 0.3333 0.0000  plane waves:   10248
 k-point   6 :   0.0000 0.0000 0.2000  plane waves:   10193
 k-point   7 :   0.3333 0.0000 0.2000  plane waves:   10246
 k-point   8 :   0.0000 0.3333 0.2000  plane waves:   10246
 k-point   9 :  -0.3333 0.0000 0.2000  plane waves:   10246
 k-point  10 :   0.0000-0.3333 0.2000  plane waves:   10246
 k-point  11 :   0.3333 0.3333 0.2000  plane waves:   10238
 k-point  12 :  -0.3333 0.3333 0.2000  plane waves:   10238
 k-point  13 :  -0.3333-0.3333 0.2000  plane waves:   10238
 k-point  14 :   0.3333-0.3333 0.2000  plane waves:   10238
 k-point  15 :   0.0000 0.0000 0.4000  plane waves:   10201
 k-point  16 :   0.3333 0.0000 0.4000  plane waves:   10223
 k-point  17 :   0.0000 0.3333 0.4000  plane waves:   10223
 k-point  18 :  -0.3333 0.0000 0.4000  plane waves:   10223
 k-point  19 :   0.0000-0.3333 0.4000  plane waves:   10223
 k-point  20 :   0.3333 0.3333 0.4000  plane waves:   10193
 k-point  21 :  -0.3333 0.3333 0.4000  plane waves:   10193
 k-point  22 :  -0.3333-0.3333 0.4000  plane waves:   10193
 k-point  23 :   0.3333-0.3333 0.4000  plane waves:   10193

 maximum and minimum number of plane-waves per node :       880      830

 maximum number of plane-waves:     10248
 maximum index in each direction: 
   IXMAX=   17   IYMAX=   17   IZMAX=    8
   IXMIN=  -17   IYMIN=  -17   IZMIN=   -8


 parallel 3D FFT for wavefunctions:
    minimum data exchange during FFTs selected (reduces bandwidth)
 parallel 3D FFT for charge:
    minimum data exchange during FFTs selected (reduces bandwidth)


 total amount of memory used by VASP MPI-rank0    91346. kBytes
=======================================================================

   base      :      30000. kBytes
   nonl-proj :      12216. kBytes
   fftplans  :       1504. kBytes
   grid      :       2835. kBytes
   one-center:         93. kBytes
   wavefun   :      44698. kBytes
 
     INWAV:  cpu time      0.0000: real time      0.0002
 Broyden mixing: mesh for mixing (old mesh)
   NGX = 33   NGY = 33   NGZ = 17
  (NGX  =140   NGY  =140   NGZ  = 72)
  gives a total of  18513 points

 initial charge density was supplied:
 charge density of overlapping atoms calculated
 number of electron     841.0000000 magnetization 
 keeping initial charge density in first step


--------------------------------------------------------------------------------------------------------


 Maximum index for augmentation-charges          505 (set IRDMAX)


--------------------------------------------------------------------------------------------------------


 First call to EWALD:  gamma=   0.170
 Maximum number of real-space cells 2x 2x 4
 Maximum number of reciprocal cells 3x 3x 2

    FEWALD:  cpu time      0.0020: real time      0.0020


--------------------------------------- Iteration      1(   1)  ---------------------------------------


    POTLOK:  cpu time      0.0425: real time      0.1759
    SETDIJ:  cpu time      0.0645: real time      0.0648
     EDDAV:  cpu time     32.6740: real time     32.8127
       DOS:  cpu time      0.1601: real time      0.1606
    --------------------------------------------
      LOOP:  cpu time     32.9412: real time     33.2140

 eigenvalue-minimisations  : 23456
 total energy-change (2. order) : 0.8260725E+04  (-0.3261730E+05)
 number of electron     841.0000000 magnetization 
 augmentation part      841.0000000 magnetization 

 Free energy of the ion-electron system (eV)
  ---------------------------------------------------
  alpha Z        PSCENC =      7241.61670864
  Ewald energy   TEWEN  =    -88182.18767540
  -Hartree energ DENC   =    -16635.72304538
  -exchange      EXHF   =         0.00000000
  -V(xc)+E(xc)   XCENC  =      3371.86839479
  PAW double counting   =     82034.44311277   -80783.59491749
  entropy T*S    EENTRO =        -0.00359858
  eigenvalues    EBANDS =     -2414.83768055
  atomic energy  EATOM  =    103629.14394411
  Solvation  Ediel_sol  =         0.00000000
  ---------------------------------------------------
  free energy    TOTEN  =      8260.72524292 eV

  energy without entropy =     8260.72884150  energy(sigma->0) =     8260.72704221


--------------------------------------------------------------------------------------------------------




--------------------------------------- Iteration      1(   2)  ---------------------------------------


     EDDAV:  cpu time     43.0725: real time     43.2469
       DOS:  cpu time      0.1986: real time      0.1992
    --------------------------------------------
      LOOP:  cpu time     43.2710: real time     43.4461

 eigenvalue-minimisations  : 23192
 total energy-change (2. order) :-0.8201402E+04  (-0.7967880E+04)
 number of electron     841.0000000 magnetization 
 augmentation part      841.0000000 magnetization 

 Free energy of the ion-electron system (eV)
  ---------------------------------------------------
  alpha Z        PSCENC =      7241.61670864
  Ewald energy   TEWEN  =    -88182.18767540
  -Hartree energ DENC   =    -16635.72304538
  -exchange      EXHF   =         0.00000000
  -V(xc)+E(xc)   XCENC  =      3371.86839479
  PAW double counting   =     82034.44311277   -80783.59491749
  entropy T*S    EENTRO =        -0.00679051
  eigenvalues    EBANDS =    -10616.23608136
  atomic energy  EATOM  =    103629.14394411
  Solvation  Ediel_sol  =         0.00000000
  ---------------------------------------------------
  free energy    TOTEN  =        59.32365017 eV

  energy without entropy =       59.33044068  energy(sigma->0) =       59.32704543


--------------------------------------------------------------------------------------------------------




--------------------------------------- Iteration      1(   3)  ---------------------------------------


     EDDAV:  cpu time     58.1589: real time     58.3786
       DOS:  cpu time      0.2002: real time      0.2008
    --------------------------------------------
      LOOP:  cpu time     58.3591: real time     58.5794

 eigenvalue-minimisations  : 34424
 total energy-change (2. order) :-0.7735371E+03  (-0.7268731E+03)
 number of electron     841.0000000 magnetization 
 augmentation part      841.0000000 magnetization 

 Free energy of the ion-electron system (eV)
  ---------------------------------------------------
  alpha Z        PSCENC =      7241.61670864
  Ewald energy   TEWEN  =    -88182.18767540
  -Hartree energ DENC   =    -16635.72304538
  -exchange      EXHF   =         0.00000000
  -V(xc)+E(xc)   XCENC  =      3371.86839479
  PAW double counting   =     82034.44311277   -80783.59491749
  entropy T*S    EENTRO =        -0.00794459
  eigenvalues    EBANDS =    -11389.77206604
  atomic energy  EATOM  =    103629.14394411
  Solvation  Ediel_sol  =         0.00000000
  ---------------------------------------------------
  free energy    TOTEN  =      -714.21348858 eV

  energy without entropy =     -714.20554399  energy(sigma->0) =     -714.20951629


--------------------------------------------------------------------------------------------------------




--------------------------------------- Iteration      1(   4)  ---------------------------------------


     EDDAV:  cpu time     45.2386: real time     45.4167
       DOS:  cpu time      0.1351: real time      0.1355
    --------------------------------------------
      LOOP:  cpu time     45.3737: real time     45.5522

 eigenvalue-minimisations  : 34800
 total energy-change (2. order) :-0.6045306E+02  (-0.5824268E+02)
 number of electron     841.0000000 magnetization 
 augmentation part      841.0000000 magnetization 

 Free energy of the ion-electron system (eV)
  ---------------------------------------------------
  alpha Z        PSCENC =      7241.61670864
  Ewald energy   TEWEN  =    -88182.18767540
  -Hartree energ DENC   =    -16635.72304538
  -exchange      EXHF   =         0.00000000
  -V(xc)+E(xc)   XCENC  =      3371.86839479
  PAW double counting   =     82034.44311277   -80783.59491749
  entropy T*S    EENTRO =        -0.01222617
  eigenvalues    EBANDS =    -11450.22084105
  atomic energy  EATOM  =    103629.14394411
  Solvation  Ediel_sol  =         0.00000000
  ---------------------------------------------------
  free energy    TOTEN  =      -774.66654518 eV

  energy without entropy =     -774.65431900  energy(sigma->0) =     -774.66043209


--------------------------------------------------------------------------------------------------------




--------------------------------------- Iteration      1(   5)  ---------------------------------------


     EDDAV:  cpu time     86.2900: real time     86.6251
       DOS:  cpu time      0.4751: real time      0.4767
    CHARGE:  cpu time      0.4852: real time      0.4867
    MIXING:  cpu time      0.0004: real time      0.0004
    --------------------------------------------
      LOOP:  cpu time     87.2507: real time     87.5888

 eigenvalue-minimisations  : 38168
 total energy-change (2. order) :-0.3736368E+01  (-0.3699283E+01)
 number of electron     840.9999693 magnetization 
 augmentation part      172.8761992 magnetization 

 Broyden mixing:
  rms(total) = 0.10646E+02    rms(broyden)= 0.10644E+02
  rms(prec ) = 0.10977E+02
  weight for this iteration     100.00

 Free energy of the ion-electron system (eV)
  ---------------------------------------------------
  alpha Z        PSCENC =      7241.61670864
  Ewald energy   TEWEN  =    -88182.18767540
  -Hartree energ DENC   =    -16635.72304538
  -exchange      EXHF   =         0.00000000
  -V(xc)+E(xc)   XCENC  =      3371.86839479
  PAW double counting   =     82034.44311277   -80783.59491749
  entropy T*S    EENTRO =        -0.01287582
  eigenvalues    EBANDS =    -11453.95655983
  atomic energy  EATOM  =    103629.14394411
  Solvation  Ediel_sol  =         0.00000000
  ---------------------------------------------------
  free energy    TOTEN  =      -778.40291361 eV

  energy without entropy =     -778.39003779  energy(sigma->0) =     -778.39647570


--------------------------------------------------------------------------------------------------------




--------------------------------------- Iteration      1(   6)  ---------------------------------------


    POTLOK:  cpu time      0.0158: real time      0.0161
    SETDIJ:  cpu time      0.0038: real time      0.0038
     EDDAV:  cpu time     32.9861: real time     33.1081
       DOS:  cpu time      0.0074: real time      0.0074
    CHARGE:  cpu time      0.4527: real time      0.4540
    MIXING:  cpu time      0.0005: real time      0.0005
    --------------------------------------------
      LOOP:  cpu time     33.4664: real time     33.5899

 eigenvalue-minimisations  : 28104
 total energy-change (2. order) : 0.2754338E+02  (-0.9317044E+01)
 number of electron     840.9999689 magnetization 
 augmentation part      179.6210293 magnetization 

 Broyden mixing:
  rms(total) = 0.41212E+01    rms(broyden)= 0.41202E+01
  rms(prec ) = 0.50602E+01
  weight for this iteration     100.00

 eigenvalues of (default mixing * dielectric matrix)
  average eigenvalue GAMMA=   1.4648
  1.4648

 Free energy of the ion-electron system (eV)
  ---------------------------------------------------
  alpha Z        PSCENC =      7241.61670864
  Ewald energy   TEWEN  =    -88182.18767540
  -Hartree energ DENC   =    -15725.17327169
  -exchange      EXHF   =         0.00000000
  -V(xc)+E(xc)   XCENC  =      3327.19514727
  PAW double counting   =     97064.17975828   -95924.01059896
  entropy T*S    EENTRO =        -0.01054898
  eigenvalues    EBANDS =    -12181.61299328
  atomic energy  EATOM  =    103629.14394411
  Solvation  Ediel_sol  =         0.00000000
  ---------------------------------------------------
  free energy    TOTEN  =      -750.85953001 eV

  energy without entropy =     -750.84898104  energy(sigma->0) =     -750.85425552


--------------------------------------------------------------------------------------------------------




--------------------------------------- Iteration      1(   7)  ---------------------------------------


    POTLOK:  cpu time      0.0154: real time      0.0158
    SETDIJ:  cpu time      0.0041: real time      0.0041
     EDDAV:  cpu time     24.4196: real time     24.5020
       DOS:  cpu time      0.0075: real time      0.0076
    CHARGE:  cpu time      0.4561: real time      0.4576
    MIXING:  cpu time      0.0010: real time      0.0010
    --------------------------------------------
      LOOP:  cpu time     24.9037: real time     24.9881

 eigenvalue-minimisations  : 33008
 total energy-change (2. order) :-0.3176131E+02  (-0.1295892E+02)
 number of electron     840.9999674 magnetization 
 augmentation part      179.3313543 magnetization 

 Broyden mixing:
  rms(total) = 0.31999E+01    rms(broyden)= 0.31965E+01
  rms(prec ) = 0.91550E+01
  weight for this iteration     100.00

 eigenvalues of (default mixing * dielectric matrix)
  average eigenvalue GAMMA=   1.0025
  1.5806  0.4243

 Free energy of the ion-electron system (eV)
  ---------------------------------------------------
  alpha Z        PSCENC =      7241.61670864
  Ewald energy   TEWEN  =    -88182.18767540
  -Hartree energ DENC   =    -15460.00175854
  -exchange      EXHF   =         0.00000000
  -V(xc)+E(xc)   XCENC  =      3311.56267364
  PAW double counting   =    106186.20380748  -105081.96416577
  entropy T*S    EENTRO =        -0.01028623
  eigenvalues    EBANDS =    -12426.98409130
  atomic energy  EATOM  =    103629.14394411
  Solvation  Ediel_sol  =         0.00000000
  ---------------------------------------------------
  free energy    TOTEN  =      -782.62084337 eV

  energy without entropy =     -782.61055714  energy(sigma->0) =     -782.61570025


--------------------------------------------------------------------------------------------------------




--------------------------------------- Iteration      1(   8)  ---------------------------------------


    POTLOK:  cpu time      0.0137: real time      0.0140
    SETDIJ:  cpu time      0.0041: real time      0.0041
     EDDAV:  cpu time     31.3537: real time     31.4724
       DOS:  cpu time      0.0717: real time      0.0719
    CHARGE:  cpu time      0.8088: real time      0.8113
    MIXING:  cpu time      0.0010: real time      0.0011
    --------------------------------------------
      LOOP:  cpu time     32.2531: real time     32.3747

 eigenvalue-minimisations  : 32960
 total energy-change (2. order) : 0.4204950E+02  (-0.9084751E+01)
 number of electron     840.9999683 magnetization 
 augmentation part      180.6958368 magnetization 

 Broyden mixing:
  rms(total) = 0.13226E+01    rms(broyden)= 0.13186E+01
  rms(prec ) = 0.24274E+01
  weight for this iteration     100.00

 eigenvalues of (default mixing * dielectric matrix)
  average eigenvalue GAMMA=   0.8623
  1.6569  0.6468  0.2832

 Free energy of the ion-electron system (eV)
  ---------------------------------------------------
  alpha Z        PSCENC =      7241.61670864
  Ewald energy   TEWEN  =    -88182.18767540
  -Hartree energ DENC   =    -15310.74594059
  -exchange      EXHF   =         0.00000000
  -V(xc)+E(xc)   XCENC  =      3304.94551775
  PAW double counting   =    109444.88835707  -108361.05654560
  entropy T*S    EENTRO =        -0.00936319
  eigenvalues    EBANDS =    -12507.16634234
  atomic energy  EATOM  =    103629.14394411
  Solvation  Ediel_sol  =         0.00000000
  ---------------------------------------------------
  free energy    TOTEN  =      -740.57133954 eV

  energy without entropy =     -740.56197635  energy(sigma->0) =     -740.56665794


--------------------------------------------------------------------------------------------------------




--------------------------------------- Iteration      1(   9)  ---------------------------------------


    POTLOK:  cpu time      0.0168: real time      0.0170
    SETDIJ:  cpu time      0.0041: real time      0.0041
     EDDAV:  cpu time     31.7558: real time     31.8681
       DOS:  cpu time      0.0071: real time      0.0071
    CHARGE:  cpu time      0.4549: real time      0.4564
    MIXING:  cpu time      0.0005: real time      0.0005
    --------------------------------------------
      LOOP:  cpu time     32.2392: real time     32.3532

 eigenvalue-minimisations  : 30624
 total energy-change (2. order) : 0.1465975E+01  (-0.4471136E+01)
[...]
 -0.005  -0.022  -0.000  -0.005   0.000   0.005   0.004  -0.001   3.196   0.034   0.040  -0.050  -0.001  -1.325  -0.013  -0.018
 -0.005  -0.020  -0.008   0.002  -0.004   0.004  -0.004   0.001   0.034   3.233  -0.012  -0.035   0.022  -0.013  -1.334   0.005
 -0.002  -0.033  -0.003   0.006   0.002   0.007  -0.014  -0.004   0.040  -0.012   2.635   0.009  -0.025  -0.017   0.005  -1.196
  0.004   0.020  -0.004  -0.000  -0.010   0.000   0.004   0.007  -0.050  -0.035   0.009   3.230   0.022   0.018   0.013  -0.004
  0.002   0.020  -0.007  -0.001  -0.003   0.014   0.001   0.005  -0.001   0.022  -0.025   0.022   2.731   0.000  -0.013   0.011
  0.004   0.010   0.000   0.003  -0.001  -0.002  -0.001  -0.000  -1.325  -0.013  -0.017   0.018   0.000   0.560   0.006   0.008
  0.004   0.009   0.005  -0.002   0.003  -0.006   0.001  -0.001  -0.013  -1.334   0.005   0.013  -0.013   0.006   0.562  -0.002
  0.002   0.014   0.002  -0.004  -0.001  -0.002   0.006   0.002  -0.018   0.005  -1.196  -0.004   0.011   0.008  -0.002   0.551
 -0.003  -0.009   0.003   0.000   0.006  -0.000  -0.002  -0.007   0.018   0.013  -0.005  -1.336  -0.011  -0.007  -0.005   0.002
 -0.001  -0.009   0.004   0.000   0.002  -0.005  -0.000  -0.002   0.000  -0.012   0.010  -0.012  -1.231  -0.000   0.006  -0.004


------------------------ aborting loop because EDIFF is reached ----------------------------------------


    CHARGE:  cpu time      0.4580: real time      0.4594
    FORLOC:  cpu time      0.0043: real time      0.0043
    FORNL :  cpu time     16.4039: real time     16.4583
    STRESS:  cpu time     15.6365: real time     15.7040
    FORCOR:  cpu time      0.0395: real time      0.0396
    FORHAR:  cpu time      0.1199: real time      0.1203
    MIXING:  cpu time      0.1334: real time      0.1339
    OFIELD:  cpu time      0.0000: real time      0.0000

  FORCE on cell =-STRESS in cart. coord.  units (eV):
  Direction    XX          YY          ZZ          XY          YZ          ZX
  --------------------------------------------------------------------------------------
  Alpha Z  7241.61671  7241.61671  7241.61671
  Ewald  -29405.63246-29439.66325-29337.34364    -0.80441    -5.13331    -8.48478
  Hartree  5084.10579  5043.17470  5150.08281    -3.10546    -5.02566    -7.81855
  E(xc)   -3873.63307 -3873.66326 -3873.61108    -0.00790    -0.00777     0.01484
  Local    6593.49413  6670.47272  6456.86849     5.59423    10.38998    16.05791
  n-local -1181.76205 -1180.12430 -1182.17952    -1.01291     0.83211     1.35070
  augment  2373.94313  2373.32363  2373.87504    -0.37750    -0.04696     0.03802
  Kinetic 13062.56265 13058.48958 13065.30931     0.09176    -0.86113    -1.06118
  Fock        0.00000     0.00000     0.00000     0.00000     0.00000     0.00000
  -------------------------------------------------------------------------------------
  Total    -105.30517  -106.37348  -105.38187     0.37781     0.14725     0.09695
  in kB    -148.05483  -149.55684  -148.16268     0.53119     0.20703     0.13631
  external pressure =     -148.59 kB  Pullay stress =        0.00 kB


 VOLUME and BASIS-vectors are now :
 -----------------------------------------------------------------------------
  energy-cutoff  :      250.00
  volume of cell :     1139.56
      direct lattice vectors                 reciprocal lattice vectors
    13.160000000  0.000000000  0.000000000     0.075987842  0.000000000  0.000000000
     0.000000000 13.160000000  0.000000000     0.000000000  0.075987842  0.000000000
     0.000000000  0.000000000  6.580000000     0.000000000  0.000000000  0.151975684

  length of vectors
    13.160000000 13.160000000  6.580000000     0.075987842  0.075987842  0.151975684


 FORCES acting on ions
    electron-ion (+dipol)            ewald-force                    non-local-force                 convergence-correction
 -----------------------------------------------------------------------------------------------
   -.398E+02 0.888E+02 0.112E+02   0.397E+02 -.886E+02 -.106E+02   -.142E-01 0.320E+00 -.142E+00   0.356E-04 0.820E-05 -.136E-04
   -.754E+02 0.358E+02 0.289E+01   0.746E+02 -.357E+02 -.244E+01   0.216E+00 -.116E+00 -.125E+00   0.480E-04 0.628E-05 -.120E-04
   0.137E+02 0.130E+02 0.216E+01   -.138E+02 -.138E+02 -.173E+01   0.129E+00 0.228E+00 -.446E-01   -.603E-04 -.142E-04 -.133E-05
   -.318E+02 0.781E+02 -.445E+02   0.317E+02 -.778E+02 0.438E+02   -.221E+00 -.407E-02 0.164E+00   -.175E-04 0.756E-05 0.283E-05
   -.119E+03 0.456E+02 -.288E+01   0.119E+03 -.456E+02 0.244E+01   -.381E+00 0.162E+00 0.128E+00   0.431E-04 0.292E-05 0.102E-04
   0.334E+02 0.322E+02 -.195E+02   -.333E+02 -.316E+02 0.195E+02   0.715E-01 -.260E+00 -.422E-01   -.562E-04 0.113E-04 -.161E-04
   0.153E+02 0.773E+01 -.972E+01   -.150E+02 -.752E+01 0.951E+01   -.150E-01 -.944E-01 -.428E-01   0.730E-05 0.823E-05 -.132E-04
   0.745E+02 -.400E+02 -.296E+02   -.744E+02 0.404E+02 0.289E+02   0.199E-01 -.362E+00 0.167E+00   -.279E-04 -.104E-04 0.743E-05
   0.201E+02 0.509E+02 0.194E+02   -.201E+02 -.507E+02 -.195E+02   -.191E+00 0.293E-02 0.693E-01   -.293E-04 0.382E-05 0.139E-04
   -.104E+02 -.285E+02 -.249E+02   0.109E+02 0.284E+02 0.247E+02   0.935E-02 0.678E-02 0.406E-01   0.329E-04 -.166E-04 -.331E-08
   -.333E+02 -.155E+02 -.177E+02   0.327E+02 0.150E+02 0.177E+02   0.486E-01 0.106E-02 0.714E-01   0.434E-04 0.195E-04 0.784E-05
   -.104E+02 -.436E+02 -.793E+01   0.103E+02 0.441E+02 0.773E+01   -.279E+00 -.297E+00 0.142E-01   -.283E-04 -.304E-04 -.498E-05
   -.208E+02 0.150E+02 0.132E+01   0.204E+02 -.150E+02 -.137E+01   -.577E-01 0.153E+00 0.122E+00   0.373E-04 -.864E-05 0.119E-04
   0.621E+02 -.413E+02 0.469E+02   -.619E+02 0.413E+02 -.462E+02   0.917E-01 -.128E+00 -.125E+00   -.406E-04 -.286E-04 -.101E-04
   0.802E+02 -.157E+02 -.469E+02   -.801E+02 0.153E+02 0.462E+02   0.143E+00 0.422E+00 0.130E+00   -.295E-04 -.463E-04 0.996E-05
   -.283E+02 -.145E+02 0.100E+02   0.279E+02 0.150E+02 -.103E+02   0.378E+00 -.540E-01 0.116E+00   0.322E-04 0.336E-04 0.126E-04
   0.174E+01 0.110E+03 0.970E+01   -.169E+01 -.110E+03 -.992E+01   0.197E+00 0.270E-01 0.676E-01   0.711E-05 0.281E-04 0.122E-04
   0.595E+02 0.633E+02 -.868E+01   -.586E+02 -.632E+02 0.888E+01   -.231E+00 -.923E-01 -.340E-01   -.155E-04 0.471E-04 -.169E-04
   0.348E+02 -.572E+02 0.981E+01   -.341E+02 0.569E+02 -.956E+01   -.198E+00 0.371E-01 -.131E+00   0.225E-04 -.219E-05 -.179E-04
   0.187E+02 -.133E+02 -.208E+01   -.188E+02 0.132E+02 0.186E+01   0.177E+00 -.398E+00 -.977E-01   -.655E-04 -.564E-05 -.358E-05
   0.652E+02 -.726E+02 -.305E+02   -.657E+02 0.720E+02 0.305E+02   0.387E+00 -.116E+00 -.106E+00   -.337E-04 -.952E-05 -.101E-04
   -.257E+02 0.216E+01 0.191E+02   0.253E+02 -.272E+01 -.191E+02   0.991E-01 0.166E+00 -.433E-01   0.557E-04 0.368E-05 -.423E-05
   -.461E+02 0.827E+02 0.476E+02   0.463E+02 -.825E+02 -.471E+02   -.302E+00 0.427E-01 0.412E-01   -.307E-04 0.219E-04 0.967E-06
   0.598E+02 0.716E+02 0.949E+01   -.592E+02 -.714E+02 -.956E+01   -.146E+00 0.652E-01 -.458E-01   -.131E-04 0.424E-04 0.162E-04
   -.446E+02 0.201E+02 -.109E+02   0.443E+02 -.202E+02 0.111E+02   0.510E-01 0.282E+00 0.299E-01   0.515E-04 0.309E-04 -.138E-04
   0.374E+02 0.181E+02 0.104E+02   -.375E+02 -.178E+02 -.102E+02   0.291E+00 0.455E-01 0.425E-01   -.904E-05 -.286E-05 0.138E-04
   -.257E+01 0.648E+02 0.181E+02   0.254E+01 -.649E+02 -.178E+02   0.467E-01 0.202E+00 0.337E-01   -.246E-04 0.400E-04 -.259E-05
   -.534E+02 -.490E+02 -.595E+02   0.535E+02 0.492E+02 0.589E+02   0.206E-01 -.248E+00 -.575E-02   0.481E-04 0.184E-05 0.239E-04
   0.522E+01 0.275E+02 -.790E+02   -.567E+01 -.279E+02 0.788E+02   -.371E-01 0.260E+00 -.305E-01   0.426E-04 -.264E-04 -.206E-04
   0.576E+02 0.954E+02 -.400E+02   -.579E+02 -.955E+02 0.400E+02   0.290E+00 0.250E+00 0.413E-01   0.491E-04 0.656E-04 -.116E-04
   -.315E+02 -.805E+02 -.172E+02   0.310E+02 0.803E+02 0.172E+02   0.176E+00 0.764E-01 0.221E-01   0.118E-04 -.182E-04 0.185E-04
   -.895E+01 -.837E+02 0.108E+02   0.929E+01 0.833E+02 -.106E+02   -.172E+00 0.262E+00 0.126E-01   -.310E-04 -.256E-04 0.731E-05
   -.909E+01 -.760E+02 -.868E+01   0.947E+01 0.757E+02 0.833E+01   -.610E-01 -.107E+00 0.445E-01   -.213E-04 -.198E-04 -.421E-05
   0.155E+02 0.842E+02 0.319E+00   -.162E+02 -.839E+02 -.344E+00   0.314E+00 0.229E+00 -.802E-01   0.538E-04 0.982E-05 0.952E-06
   -.419E+02 -.440E+02 0.251E+02   0.414E+02 0.443E+02 -.248E+02   0.340E+00 -.406E-01 -.121E-01   0.471E-05 -.453E-04 0.364E-05
   -.215E+02 -.650E+02 -.248E+02   0.217E+02 0.646E+02 0.245E+02   -.159E+00 -.186E+00 -.308E-01   -.135E-04 0.624E-05 -.689E-05
   -.104E+02 -.369E+02 0.248E+02   0.105E+02 0.361E+02 -.245E+02   0.272E+00 -.765E-01 0.132E-01   -.374E-04 -.590E-05 0.608E-05
   0.763E+02 0.523E+02 0.144E+02   -.752E+02 -.524E+02 -.144E+02   0.218E+00 0.743E-01 -.885E-02   -.438E-04 0.175E-04 0.584E-05
   -.964E+01 -.176E+01 -.116E+01   0.939E+01 0.213E+01 0.116E+01   -.216E+00 -.254E+00 -.705E-01   0.411E-04 -.245E-05 -.873E-05
   0.246E+02 -.698E+02 0.242E+02   -.246E+02 0.690E+02 -.239E+02   -.306E+00 0.139E-01 0.178E-01   -.101E-04 -.258E-05 0.428E-05
   -.152E+02 -.499E+02 -.410E+02   0.148E+02 0.496E+02 0.407E+02   -.295E-01 -.136E+00 -.627E-01   -.101E-05 -.437E-04 -.162E-04
   0.230E+01 -.209E+02 0.679E+01   -.247E+01 0.211E+02 -.654E+01   -.210E-01 -.157E+00 0.270E-01   -.467E-04 -.304E-04 0.108E-05
   -.689E+01 0.990E+02 -.812E+01   0.707E+01 -.992E+02 0.839E+01   0.128E-01 0.348E+00 -.508E-01   0.928E-06 0.736E-05 -.145E-04
   -.111E+02 0.476E+02 0.166E+02   0.113E+02 -.472E+02 -.161E+02   -.339E+00 0.734E-01 -.254E-01   -.390E-04 0.369E-04 -.114E-04
   -.273E+02 0.806E+02 -.516E+00   0.273E+02 -.803E+02 0.438E+00   -.302E+00 0.166E+00 0.363E-01   0.651E-04 0.123E-04 0.516E-05
   0.121E+02 -.417E+02 -.188E+01   -.114E+02 0.418E+02 0.186E+01   -.239E+00 -.952E-01 -.112E-02   -.387E-04 -.439E-04 -.132E-04
   -.150E+02 -.107E+03 0.171E+02   0.146E+02 0.107E+03 -.172E+02   -.181E+00 -.291E+00 -.119E-02   0.207E-04 -.279E-04 -.194E-04
   -.870E+02 -.636E+02 -.318E+02   0.871E+02 0.641E+02 0.316E+02   -.368E+00 -.276E+00 -.423E-01   0.336E-04 -.381E-04 -.526E-05
   -.137E+02 -.405E+02 0.267E+02   0.139E+02 0.403E+02 -.266E+02   0.699E-01 -.145E+00 0.489E-01   0.233E-04 -.806E-05 -.231E-06
   0.406E+01 -.598E+02 -.128E+02   -.366E+01 0.603E+02 0.130E+02   -.173E+00 -.153E+00 0.112E-01   0.803E-05 0.715E-05 -.197E-04
   -.863E+02 -.905E+02 -.507E+02   0.858E+02 0.907E+02 0.502E+02   0.316E+00 -.402E+00 -.782E-01   0.256E-04 -.813E-05 0.273E-04
   -.155E+02 -.644E+02 0.519E+02   0.153E+02 0.644E+02 -.518E+02   -.143E-01 -.148E+00 0.643E-01   -.352E-05 -.364E-04 0.251E-04
   -.529E+02 0.906E+02 -.118E+02   0.527E+02 -.907E+02 0.114E+02   -.723E-01 0.399E+00 -.178E+00   0.268E-04 0.433E-05 0.128E-04
   0.119E+02 0.731E+02 -.208E+02   -.119E+02 -.732E+02 0.205E+02   -.193E+00 0.518E+00 -.119E+00   -.461E-04 0.548E-04 0.966E-05
   0.122E+03 0.539E+02 -.183E+02   -.122E+03 -.537E+02 0.183E+02   0.671E+00 -.326E+00 0.228E-01   -.529E-04 0.240E-04 -.234E-05
   0.252E+02 -.463E+02 0.129E+02   -.250E+02 0.464E+02 -.130E+02   0.210E-02 -.288E-01 -.832E-01   -.131E-04 -.861E-05 0.163E-04
   0.301E+01 0.141E+02 0.791E+02   -.345E+01 -.140E+02 -.788E+02   -.150E+00 0.105E-01 0.727E-01   0.443E-04 -.145E-04 0.166E-04
   0.317E+02 -.383E+02 0.189E+01   -.311E+02 0.384E+02 -.186E+01   -.240E+00 0.465E-01 -.151E-02   -.322E-04 -.407E-04 0.151E-04
   0.408E+02 -.603E+02 -.105E+02   -.403E+02 0.600E+02 0.103E+02   0.221E+00 -.354E-01 -.625E-01   -.401E-05 -.557E-05 0.207E-04
   -.131E+02 0.807E+02 -.181E+02   0.133E+02 -.807E+02 0.178E+02   -.394E+00 0.250E-01 -.107E+00   -.154E-04 0.407E-04 0.463E-05
   -.371E+02 -.386E+02 0.596E+02   0.370E+02 0.384E+02 -.589E+02   -.106E+00 0.249E+00 0.156E+00   0.719E-04 -.979E-05 -.321E-04
   -.762E+02 -.953E+02 0.507E+02   0.758E+02 0.954E+02 -.502E+02   0.346E+00 -.562E+00 0.973E-01   0.262E-04 -.329E-05 -.276E-04
   0.454E+02 0.967E+02 0.400E+02   -.457E+02 -.968E+02 -.400E+02   0.446E+00 0.912E-01 -.243E-01   0.308E-04 0.652E-04 0.825E-05
   0.775E+02 -.303E+02 0.316E+02   -.774E+02 0.305E+02 -.311E+02   0.143E+00 0.398E-01 0.201E+00   -.484E-04 -.450E-05 -.912E-05
 -----------------------------------------------------------------------------------------------
   -.403E+00 0.295E+00 -.693E-01   -.711E-13 0.632E-12 -.227E-12   0.403E+00 -.295E+00 0.693E-01   0.655E-04 0.240E-04 -.107E-04
 
 
 POSITION                                       TOTAL-FORCE (eV/Angst)
 -----------------------------------------------------------------------------------
      4.93500      1.64500      4.93500        -0.200193      0.536097      0.517678
      4.93500     11.51500      4.93500        -0.582645     -0.039049      0.326916
      1.64500      1.64500      4.93500        -0.010023     -0.516460      0.387085
      3.29000      0.00000      3.29000        -0.333389      0.265377     -0.574870
      4.93500     11.51500      1.64500        -0.567478      0.140286     -0.317699
      0.00000      9.87000      0.00000         0.180512      0.357087     -0.054988
      3.29000      3.29000      3.29000         0.248265      0.116010     -0.245466
      1.64500      4.93500      1.64500         0.151538      0.047625     -0.557202
      0.00000      9.87000      3.29000        -0.123624      0.186853      0.059986
      3.29000      9.87000      3.29000         0.438155     -0.110963     -0.217520
     11.51500      1.64500      4.93500        -0.549909     -0.492007      0.038276
      0.00000      3.29000      3.29000        -0.326783      0.204816     -0.185574
     11.51500      8.22500      4.93500        -0.507141      0.147845      0.074372
      1.64500      8.22500      4.93500         0.252083     -0.044669      0.584558
      1.64500      8.22500      1.64500         0.185342     -0.001101     -0.591502
      6.58000      3.29000      3.29000        -0.027465      0.379972     -0.126806
      6.58000      0.00000      3.29000         0.253595      0.143462     -0.151694
      8.22500      1.64500      4.93500         0.665931      0.058307      0.166527
      3.29000      6.58000      3.29000         0.480671     -0.218479      0.118616
      1.64500      1.64500      1.64500         0.065736     -0.467886     -0.320481
      0.00000      6.58000      0.00000        -0.056604     -0.637421     -0.127599
     11.51500      1.64500      1.64500        -0.280171     -0.390328      0.013712
      3.29000      0.00000      0.00000        -0.102495      0.202210      0.558442
      8.22500      1.64500      1.64500         0.472886      0.216873     -0.114282
      6.58000      3.29000      0.00000        -0.239903      0.204879      0.175090
      3.29000      3.29000      0.00000         0.139769      0.369534      0.187891
      0.00000      0.00000      0.00000         0.007862      0.155606      0.306281
      4.93500      4.93500      1.64500         0.142987     -0.060165     -0.648683
      9.87000      9.87000      0.00000        -0.488876     -0.114719     -0.326950
      9.87000      0.00000      0.00000        -0.013107      0.143892     -0.009842
     11.51500      4.93500      4.93500        -0.292617     -0.067558     -0.004864
      8.22500      4.93500      4.93500         0.172021     -0.074073      0.173722
      8.22500      4.93500      1.64500         0.325582     -0.374493     -0.307610
     11.51500     11.51500      1.64500        -0.408569      0.482084     -0.105367
      6.58000      6.58000      3.29000        -0.166283      0.223528      0.254870
      6.58000      9.87000      0.00000         0.024607     -0.611822     -0.272287
      6.58000      9.87000      3.29000         0.316666     -0.856264      0.241986
      8.22500     11.51500      1.64500         1.268088      0.012747     -0.037441
     11.51500      8.22500      1.64500        -0.459362      0.121530     -0.072428
      0.00000      6.58000      3.29000        -0.251914     -0.736142      0.265218
      9.87000      6.58000      0.00000        -0.379363     -0.434966     -0.399275
      0.00000      3.29000      0.00000        -0.189058      0.111136      0.267966
      6.58000      0.00000      0.00000         0.190197      0.223431      0.222608
      1.64500     11.51500      4.93500        -0.138469      0.465769      0.479374
     11.51500     11.51500      4.93500        -0.308132      0.461723     -0.041309
      8.22500      8.22500      1.64500         0.393225     -0.084195     -0.021017
     11.51500      4.93500      1.64500        -0.609965     -0.064777     -0.028095
      6.58000      6.58000      0.00000        -0.293903      0.229514     -0.195861
      3.29000      9.87000      0.00000         0.336583     -0.355761      0.220373
      9.87000      3.29000      0.00000         0.224278      0.338427      0.171308
      4.93500      8.22500      1.64500        -0.207384     -0.225621     -0.627598
      9.87000      6.58000      3.29000        -0.203303     -0.170014      0.187226
      4.93500      1.64500      1.64500        -0.254531      0.232825     -0.640798
      1.64500     11.51500      1.64500        -0.211704      0.466982     -0.409211
      8.22500     11.51500      4.93500         0.966240     -0.098464     -0.004625
      9.87000      3.29000      3.29000         0.127923      0.110830     -0.164043
      9.87000      9.87000      3.29000        -0.584109      0.085046      0.402032
      8.22500      8.22500      4.93500         0.364348      0.119818      0.030706
      3.29000      6.58000      0.00000         0.785842     -0.252133     -0.219760
      0.00000      0.00000      3.29000        -0.117431      0.050412     -0.377522
      4.93500      4.93500      4.93500        -0.111256      0.114730      0.836396
      4.93500      8.22500      4.93500        -0.063426     -0.431999      0.610803
      9.87000      0.00000      3.29000         0.179222      0.018346      0.008125
      1.64500      4.93500      4.93500         0.300431      0.185922      0.612125
 -----------------------------------------------------------------------------------
    total drift:                               -0.000026      0.000042     -0.000020


--------------------------------------------------------------------------------------------------------



  FREE ENERGIE OF THE ION-ELECTRON SYSTEM (eV)
  ---------------------------------------------------
  free  energy   TOTEN  =      -738.99638984 eV

  energy  without entropy=     -738.98653104  energy(sigma->0) =     -738.99146044
 


--------------------------------------------------------------------------------------------------------


    POTLOK:  cpu time      0.0261: real time      0.0262


--------------------------------------------------------------------------------------------------------


     LOOP+:  cpu time    936.9940: real time    940.8366
    4ORBIT:  cpu time      0.0000: real time      0.0000

 total amount of memory used by VASP MPI-rank0    91346. kBytes
=======================================================================

   base      :      30000. kBytes
   nonl-proj :      12216. kBytes
   fftplans  :       1504. kBytes
   grid      :       2835. kBytes
   one-center:         93. kBytes
   wavefun   :      44698. kBytes
 
  
  
 General timing and accounting informations for this job:
 ========================================================
  
                  Total CPU time used (sec):      969.682
                            User time (sec):      960.707
                          System time (sec):        8.975
                         Elapsed time (sec):      974.857
  
                   Maximum memory used (kb):      150948.
                   Average memory used (kb):          N/A
  
                          Minor page faults:        11978
                          Major page faults:            0
                 Voluntary context switches:          269
