 vasp.6.3.1 04May22 (build Jul 26 2022 04:02:40) complex                        
  
 executed on             LinuxIFC date 2023.11.30  02:07:15
 running on   48 total cores
 distrk:  each k-point on   48 cores,    1 groups
 distr:  one band on NCORE=  12 cores,    4 groups


--------------------------------------------------------------------------------------------------------


 INCAR:
   ISTART = 0
   NWRITE = 2
   PREC = Accurate
   ENCUT = 250
   GGA = PE
   NSW = 0
   ISIF = 2
   ISYM = 2
   NBLOCK = 1
   KBLOCK = 1
   IBRION = -1
   NELM = 80
   EDIFF = 1E-08
   EDIFFG = -0.01
   ALGO = Normal
   LDIAG = .TRUE.
   LREAL = .FALSE.
   ISMEAR = 0
   SIGMA = 0.02
   ICHARG = 2
   LPLANE = .TRUE.
   NPAR = 4
   LSCALU = .FALSE.
   NSIM = 4
   LWAVE = .FALSE.
   LCHARG = .FALSE.
   ICORELEVEL = 1

 POTCAR:    PAW_PBE Nb_sv 25May2007               
 POTCAR:    PAW_PBE Mo_sv 02Feb2006               
 POTCAR:    PAW_PBE Ta_pv 07Sep2000               
 POTCAR:    PAW_PBE W_sv 04Sep2015                
 POTCAR:    PAW_PBE Nb_sv 25May2007               
   SHA256 =  0e8fc07c9fcd1164cf2ade22d0399fd28f85e91cd773dfa6cf24839a48c95e24 Nb_sv/POTCAR          
   COPYR  = (c) Copyright 25May2007 Georg Kresse                                                    
   COPYR  = This file is part of the software VASP. Any use, copying, and all other rights are regul
   COPYR  = If you do not have a valid VASP license, you may not use, copy or distribute this file. 
   VRHFIN =Nb: 4p5s4d                                                                               
   LEXCH  = PE                                                                                      
   EATOM  =  1555.1913 eV,  114.3033 Ry                                                             
                                                                                                    
   TITEL  = PAW_PBE Nb_sv 25May2007                                                                 
   LULTRA =        F    use ultrasoft PP ?                                                          
   IUNSCR =        1    unscreen: 0-lin 1-nonlin 2-no                                               
   RPACOR =    1.800    partial core radius                                                         
   POMASS =   92.910; ZVAL   =   13.000    mass and valenz                                          
   RCORE  =    2.400    outmost cutoff radius                                                       
   RWIGS  =    2.400; RWIGS  =    1.270    wigner-seitz radius (au A)                               
   ENMAX  =  293.235; ENMIN  =  219.927 eV                                                          
   ICORE  =        3    local potential                                                             
   LCOR   =        T    correct aug charges                                                         
   LPAW   =        T    paw PP                                                                      
   EAUG   =  455.659                                                                                
   DEXC   =    0.000                                                                                
   RMAX   =    2.456    core radius for proj-oper                                                   
   RAUG   =    1.300    factor for augmentation sphere                                              
   RDEP   =    2.451    radius for radial grids                                                     
   RDEPT  =    1.956    core radius for aug-charge                                                  
                                                                                                    
   Atomic configuration                                                                             
   11 entries                                                                                       
     n  l   j            E        occ.                                                              
     1  0  0.50    -18805.2457   2.0000                                                             
     2  0  0.50     -2630.2869   2.0000                                                             
     2  1  1.50     -2348.4046   6.0000                                                             
     3  0  0.50      -438.8757   2.0000                                                             
     3  1  1.50      -346.7588   6.0000                                                             
     3  2  2.50      -196.2560  10.0000                                                             
     4  0  0.50       -58.3859   2.0000                                                             
     5  0  0.50        -3.9816   1.0000                                                             
     4  1  1.50       -34.5141   6.0000                                                             
     4  2  2.50        -3.0408   4.0000                                                             
     4  3  2.50        -1.3606   0.0000                                                             
   Description                                                                                      
     l       E           TYP  RCUT    TYP  RCUT                                                     
     0    -58.3859094     23  2.200                                                                 
     0     -3.9816262     23  2.200                                                                 
     1    -34.5140738     23  2.200                                                                 
     1     13.6058260     23  2.200                                                                 
     2     -3.0408010     23  2.200                                                                 
     2     -0.1283038     23  2.200                                                                 
     3     -1.3605826     23  2.400                                                                 
  local pseudopotential read in
  partial core-charges read in
  partial kinetic energy density read in
  atomic valenz-charges read in
  non local Contribution for L=           0  read in
    real space projection operators read in
  non local Contribution for L=           0  read in
    real space projection operators read in
  non local Contribution for L=           1  read in
    real space projection operators read in
  non local Contribution for L=           1  read in
    real space projection operators read in
  non local Contribution for L=           2  read in
    real space projection operators read in
  non local Contribution for L=           2  read in
    real space projection operators read in
    PAW grid and wavefunctions read in
 
   number of l-projection  operators is LMAX  =           6
   number of lm-projection operators is LMMAX =          18
 
 POTCAR:    PAW_PBE Mo_sv 02Feb2006               
   SHA256 =  2731df97e41766cc617548c5a8267718fdef1f509ac6bafa01e745abea2bdfaa Mo_sv/POTCAR          
   COPYR  = (c) Copyright 02Feb2006 Georg Kresse                                                    
   COPYR  = This file is part of the software VASP. Any use, copying, and all other rights are regul
   COPYR  = If you do not have a valid VASP license, you may not use, copy or distribute this file. 
   VRHFIN =Mo: 4p5s4d                                                                               
   LEXCH  = PE                                                                                      
   EATOM  =  1862.2866 eV,  136.8742 Ry                                                             
                                                                                                    
   TITEL  = PAW_PBE Mo_sv 02Feb2006                                                                 
   LULTRA =        F    use ultrasoft PP ?                                                          
   IUNSCR =        1    unscreen: 0-lin 1-nonlin 2-no                                               
   RPACOR =    2.200    partial core radius                                                         
   POMASS =   95.940; ZVAL   =   14.000    mass and valenz                                          
   RCORE  =    2.500    outmost cutoff radius                                                       
   RWIGS  =    2.750; RWIGS  =    1.455    wigner-seitz radius (au A)                               
   ENMAX  =  242.676; ENMIN  =  182.007 eV                                                          
   ICORE  =        3    local potential                                                             
   LCOR   =        T    correct aug charges                                                         
   LPAW   =        T    paw PP                                                                      
   EAUG   =  446.014                                                                                
   DEXC   =    0.000                                                                                
   RMAX   =    2.563    core radius for proj-oper                                                   
   RAUG   =    1.300    factor for augmentation sphere                                              
   RDEP   =    2.641    radius for radial grids                                                     
   RDEPT  =    2.031    core radius for aug-charge                                                  
                                                                                                    
   Atomic configuration                                                                             
   11 entries                                                                                       
     n  l   j            E        occ.                                                              
     1  0  0.50    -19819.0341   2.0000                                                             
     2  0  0.50     -2799.0127   2.0000                                                             
     2  1  1.50     -2502.0276   6.0000                                                             
     3  0  0.50      -476.4449   2.0000                                                             
     3  1  1.50      -379.1496   6.0000                                                             
     3  2  2.50      -220.9367  10.0000                                                             
     4  0  0.50       -64.3378   2.0000                                                             
     5  0  0.50        -4.0862   1.0000                                                             
     4  1  1.50       -38.4773   6.0000                                                             
     4  2  2.50        -3.7535   5.0000                                                             
     4  3  2.50        -1.3606   0.0000                                                             
   Description                                                                                      
     l       E           TYP  RCUT    TYP  RCUT                                                     
     0    -64.3377829     23  2.100                                                                 
     0     -4.0861640     23  2.400                                                                 
     1    -38.4772993     23  2.100                                                                 
     1     13.6058260     23  2.100                                                                 
     2     -3.7534941     23  2.400                                                                 
     2     -5.1140767     23  2.400                                                                 
     3     -4.0817478     23  2.500                                                                 
  local pseudopotential read in
  partial core-charges read in
  partial kinetic energy density read in
  atomic valenz-charges read in
  non local Contribution for L=           0  read in
    real space projection operators read in
  non local Contribution for L=           0  read in
    real space projection operators read in
  non local Contribution for L=           1  read in
    real space projection operators read in
  non local Contribution for L=           1  read in
    real space projection operators read in
  non local Contribution for L=           2  read in
    real space projection operators read in
  non local Contribution for L=           2  read in
    real space projection operators read in
    PAW grid and wavefunctions read in
 
   number of l-projection  operators is LMAX  =           6
   number of lm-projection operators is LMMAX =          18
 
 POTCAR:    PAW_PBE Ta_pv 07Sep2000               
   SHA256 =  00d0a14a36c127416459414afb8617d9754996fffa60a2465888e660b20a452f Ta_pv/POTCAR          
   COPYR  = (c) Copyright 07Sep2000 Georg Kresse                                                    
   COPYR  = This file is part of the software VASP. Any use, copying, and all other rights are regul
   COPYR  = If you do not have a valid VASP license, you may not use, copy or distribute this file. 
   VRHFIN =Ta:  5p6s5d                                                                              
   LEXCH  = PE                                                                                      
   EATOM  =  1047.1984 eV,   76.9669 Ry                                                             
                                                                                                    
   TITEL  = PAW_PBE Ta_pv 07Sep2000                                                                 
   LULTRA =        F    use ultrasoft PP ?                                                          
   IUNSCR =        1    unscreen: 0-lin 1-nonlin 2-no                                               
   RPACOR =    2.330    partial core radius                                                         
   POMASS =  180.948; ZVAL   =   11.000    mass and valenz                                          
   RCORE  =    2.500    outmost cutoff radius                                                       
   RWIGS  =    2.840; RWIGS  =    1.503    wigner-seitz radius (au A)                               
   ENMAX  =  223.667; ENMIN  =  167.750 eV                                                          
   RCLOC  =    2.205    cutoff for local pot                                                        
   LCOR   =        T    correct aug charges                                                         
   LPAW   =        T    paw PP                                                                      
   EAUG   =  377.421                                                                                
   DEXC   =    0.000                                                                                
   RMAX   =    2.551    core radius for proj-oper                                                   
   RAUG   =    1.300    factor for augmentation sphere                                              
   RDEP   =    2.526    radius for radial grids                                                     
   RDEPT  =    2.132    core radius for aug-charge                                                  
                                                                                                    
   Atomic configuration                                                                             
   15 entries                                                                                       
     n  l   j            E        occ.                                                              
     1  0  0.50    -67341.2801   2.0000                                                             
     2  0  0.50    -11566.9369   2.0000                                                             
     2  1  1.50    -10134.1175   6.0000                                                             
     3  0  0.50     -2648.5614   2.0000                                                             
     3  1  1.50     -2222.6006   6.0000                                                             
     3  2  2.50     -1726.3114  10.0000                                                             
     4  0  0.50      -538.6957   2.0000                                                             
     4  1  1.50      -399.0125   6.0000                                                             
     4  2  2.50      -220.3955  10.0000                                                             
     4  3  3.50       -23.0371  14.0000                                                             
     5  0  0.50       -71.2900   2.0000                                                             
     5  1  1.50       -37.8224   6.0000                                                             
     5  2  2.50        -2.6455   4.0000                                                             
     6  0  0.50        -4.9623   1.0000                                                             
     5  3  2.50        -1.3606   0.0000                                                             
   Description                                                                                      
     l       E           TYP  RCUT    TYP  RCUT                                                     
     1    -37.8224449     23  2.500                                                                 
     1      1.3605826     23  2.500                                                                 
     2     -2.6454718     23  2.500                                                                 
     2     -0.6258570     23  2.500                                                                 
     0     -4.9622674     23  2.500                                                                 
     0      4.7531427     23  2.500                                                                 
  local pseudopotential read in
  partial core-charges read in
  partial kinetic energy density read in
  atomic valenz-charges read in
  non local Contribution for L=           1  read in
    real space projection operators read in
  non local Contribution for L=           1  read in
    real space projection operators read in
  non local Contribution for L=           2  read in
    real space projection operators read in
  non local Contribution for L=           2  read in
    real space projection operators read in
  non local Contribution for L=           0  read in
    real space projection operators read in
  non local Contribution for L=           0  read in
    real space projection operators read in
    PAW grid and wavefunctions read in
 
   number of l-projection  operators is LMAX  =           6
   number of lm-projection operators is LMMAX =          18
 
 POTCAR:    PAW_PBE W_sv 04Sep2015                
   SHA256 =  931c2d770f65867ef30f3db3421922900fc0890ebac5c3e12f63b6a2064023d7 W_sv/POTCAR           
   COPYR  = (c) Copyright 04Sep2015 Georg Kresse                                                    
   COPYR  = This file is part of the software VASP. Any use, copying, and all other rights are regul
   COPYR  = If you do not have a valid VASP license, you may not use, copy or distribute this file. 
   VRHFIN =W : 5p6s5d                                                                               
   LEXCH  = PE                                                                                      
   EATOM  =  1865.5791 eV,  137.1162 Ry                                                             
                                                                                                    
   TITEL  = PAW_PBE W_sv 04Sep2015                                                                  
   LULTRA =        F    use ultrasoft PP ?                                                          
   IUNSCR =        1    unscreen: 0-lin 1-nonlin 2-no                                               
   RPACOR =    2.330    partial core radius                                                         
   POMASS =  183.850; ZVAL   =   14.000    mass and valenz                                          
   RCORE  =    2.500    outmost cutoff radius                                                       
   RWIGS  =    2.750; RWIGS  =    1.455    wigner-seitz radius (au A)                               
   ENMAX  =  223.057; ENMIN  =  167.293 eV                                                          
   ICORE  =        3    local potential                                                             
   LCOR   =        T    correct aug charges                                                         
   LPAW   =        T    paw PP                                                                      
   EAUG   =  373.438                                                                                
   DEXC   =    0.000                                                                                
   RMAX   =    2.565    core radius for proj-oper                                                   
   RAUG   =    1.300    factor for augmentation sphere                                              
   RDEP   =    2.539    radius for radial grids                                                     
   RDEPT  =    2.126    core radius for aug-charge                                                  
                                                                                                    
   Atomic configuration                                                                             
   15 entries                                                                                       
     n  l   j            E        occ.                                                              
     1  0  0.50    -69465.5834   2.0000                                                             
     2  0  0.50    -11986.2640   2.0000                                                             
     2  1  1.50    -10479.8613   6.0000                                                             
     3  0  0.50     -2759.0756   2.0000                                                             
     3  1  1.50     -2313.1855   6.0000                                                             
     3  2  2.50     -1801.1183  10.0000                                                             
     4  0  0.50      -567.6789   2.0000                                                             
     4  1  1.50      -421.4692   6.0000                                                             
     4  2  2.50      -236.3471  10.0000                                                             
     4  3  3.50       -31.2665  14.0000                                                             
     5  0  0.50       -77.1084   2.0000                                                             
     6  0  0.50        -5.1438   1.0000                                                             
     5  1  1.50       -41.3856   6.0000                                                             
     5  2  2.50        -3.3185   5.0000                                                             
     5  3  2.50        -1.3606   0.0000                                                             
   Description                                                                                      
     l       E           TYP  RCUT    TYP  RCUT                                                     
     0    -77.1084470     23  2.100                                                                 
     0     -5.1437956     23  2.300                                                                 
     1    -41.3855615     23  2.500                                                                 
     1     -2.7211652     23  2.500                                                                 
     2     -3.3185025     23  2.500                                                                 
     2     -1.5965151     23  2.500                                                                 
     3     -1.3605826     23  2.500                                                                 
  local pseudopotential read in
  partial core-charges read in
  partial kinetic energy density read in
  kinetic energy density of atom read in
  atomic valenz-charges read in
  non local Contribution for L=           0  read in
    real space projection operators read in
  non local Contribution for L=           0  read in
    real space projection operators read in
  non local Contribution for L=           1  read in
    real space projection operators read in
  non local Contribution for L=           1  read in
    real space projection operators read in
  non local Contribution for L=           2  read in
    real space projection operators read in
  non local Contribution for L=           2  read in
    real space projection operators read in
    PAW grid and wavefunctions read in
 
   number of l-projection  operators is LMAX  =           6
   number of lm-projection operators is LMMAX =          18
 
  PAW_PBE Nb_sv 25May2007               :
 energy of atom  1       EATOM=-1555.1913
 kinetic energy error for atom=    0.2155 (will be added to EATOM!!)
  PAW_PBE Mo_sv 02Feb2006               :
 energy of atom  2       EATOM=-1862.2866
 kinetic energy error for atom=    0.1102 (will be added to EATOM!!)
  PAW_PBE Ta_pv 07Sep2000               :
 energy of atom  3       EATOM=-1047.1984
 kinetic energy error for atom=    0.0394 (will be added to EATOM!!)
  PAW_PBE W_sv 04Sep2015                :
 energy of atom  4       EATOM=-1865.5791
 kinetic energy error for atom=    0.0589 (will be added to EATOM!!)
 
 
 POSCAR: Nb-Mo-Ta-W alloy
  positions in direct lattice
  No initial velocities read in
 exchange correlation table for  LEXCH =        8
   RHO(1)=    0.500       N(1)  =     2000
   RHO(2)=  100.500       N(2)  =     4000
 


--------------------------------------------------------------------------------------------------------


 ion  position               nearest neighbor table
   1  0.750  0.250  0.750-   3 2.85   6 2.85   8 2.85  10 2.85  12 2.85  13 2.85  15 2.85  16 2.85
                            11 3.29  11 3.29
   2  0.250  0.250  0.250-   3 2.85   6 2.85   8 2.85  10 2.85  12 2.85  13 2.85  15 2.85  16 2.85

   3  0.500  0.000  0.000-   1 2.85   2 2.85   4 2.85   5 2.85   7 2.85   9 2.85  11 2.85  14 2.85
                            10 3.29  10 3.29
   4  0.750  0.250  0.250-   3 2.85   6 2.85   8 2.85  10 2.85  12 2.85  13 2.85  15 2.85  16 2.85
                            14 3.29  14 3.29
   5  0.250  0.250  0.750-   3 2.85   6 2.85   8 2.85  10 2.85  12 2.85  13 2.85  15 2.85  16 2.85
                             9 3.29   9 3.29
   6  0.500  0.500  0.000-   1 2.85   2 2.85   4 2.85   5 2.85   7 2.85   9 2.85  11 2.85  14 2.85
                            12 3.29  16 3.29  12 3.29  16 3.29
   7  0.250  0.750  0.250-   3 2.85   6 2.85   8 2.85  10 2.85  12 2.85  13 2.85  15 2.85  16 2.85
                             9 3.29  14 3.29   9 3.29  14 3.29
   8  0.000  0.000  0.500-   1 2.85   2 2.85   4 2.85   5 2.85   7 2.85   9 2.85  11 2.85  14 2.85
                            13 3.29  10 3.29  15 3.29  10 3.29  13 3.29  15 3.29
   9  0.250  0.750  0.750-   3 2.85   6 2.85   8 2.85  10 2.85  12 2.85  13 2.85  15 2.85  16 2.85
                             7 3.29  11 3.29   5 3.29   7 3.29   5 3.29  11 3.29
  10  0.000  0.000  0.000-   1 2.85   2 2.85   4 2.85   5 2.85   7 2.85   9 2.85  11 2.85  14 2.85
                             8 3.29   3 3.29  16 3.29   8 3.29  16 3.29   3 3.29
  11  0.750  0.750  0.750-   3 2.85   6 2.85   8 2.85  10 2.85  12 2.85  13 2.85  15 2.85  16 2.85
                            14 3.29   9 3.29   1 3.29  14 3.29   1 3.29   9 3.29
  12  0.500  0.500  0.500-   1 2.85   2 2.85   4 2.85   5 2.85   7 2.85   9 2.85  11 2.85  14 2.85
                            13 3.29   6 3.29  15 3.29   6 3.29  15 3.29  13 3.29
  13  0.000  0.500  0.500-   1 2.85   2 2.85   4 2.85   5 2.85   7 2.85   9 2.85  11 2.85  14 2.85
                            12 3.29   8 3.29  16 3.29  16 3.29   8 3.29  12 3.29
  14  0.750  0.750  0.250-   3 2.85   6 2.85   8 2.85  10 2.85  12 2.85  13 2.85  15 2.85  16 2.85
                             7 3.29  11 3.29   4 3.29  11 3.29   4 3.29   7 3.29
  15  0.500  0.000  0.500-   1 2.85   2 2.85   4 2.85   5 2.85   7 2.85   9 2.85  11 2.85  14 2.85
                            12 3.29   8 3.29  12 3.29   8 3.29
  16  0.000  0.500  0.000-   1 2.85   2 2.85   4 2.85   5 2.85   7 2.85   9 2.85  11 2.85  14 2.85
                             6 3.29  13 3.29  10 3.29  13 3.29  10 3.29   6 3.29
 
  LATTYP: Found a simple cubic cell.
 ALAT       =     6.5800000000
  
  Lattice vectors:
  
 A1 = (   6.5800000000,   0.0000000000,   0.0000000000)
 A2 = (   0.0000000000,   6.5800000000,   0.0000000000)
 A3 = (   0.0000000000,   0.0000000000,   6.5800000000)


Analysis of symmetry for initial positions (statically):
=====================================================================
 Subroutine PRICEL returns:
 Original cell was already a primitive cell.
 

 Routine SETGRP: Setting up the symmetry group for a 
 simple cubic supercell.


 Subroutine GETGRP returns: Found  1 space group operations
 (whereof  1 operations were pure point group operations)
 out of a pool of 48 trial point group operations.


The static configuration has the point symmetry C_1 .


Analysis of symmetry for dynamics (positions and initial velocities):
=====================================================================
 Subroutine PRICEL returns:
 Original cell was already a primitive cell.
 

 Routine SETGRP: Setting up the symmetry group for a 
 simple cubic supercell.


 Subroutine GETGRP returns: Found  1 space group operations
 (whereof  1 operations were pure point group operations)
 out of a pool of 48 trial point group operations.


The dynamic configuration has the point symmetry C_1 .


 Subroutine INISYM returns: Found  1 space group operations
 (whereof  1 operations are pure point group operations),
 and found     1 'primitive' translations


----------------------------------------------------------------------------------------

                                     Primitive cell                                     

  volume of cell :     284.8903

  direct lattice vectors                    reciprocal lattice vectors
     6.580000000  0.000000000  0.000000000     0.151975684  0.000000000  0.000000000
     0.000000000  6.580000000  0.000000000     0.000000000  0.151975684  0.000000000
     0.000000000  0.000000000  6.580000000     0.000000000  0.000000000  0.151975684

  length of vectors
     6.580000000  6.580000000  6.580000000     0.151975684  0.151975684  0.151975684

  position of ions in fractional coordinates (direct lattice)
     0.750000000  0.250000000  0.750000000
     0.250000000  0.250000000  0.250000000
     0.500000000  0.000000000  0.000000000
     0.750000000  0.250000000  0.250000000
     0.250000000  0.250000000  0.750000000
     0.500000000  0.500000000  0.000000000
     0.250000000  0.750000000  0.250000000
     0.000000000  0.000000000  0.500000000
     0.250000000  0.750000000  0.750000000
     0.000000000  0.000000000  0.000000000
     0.750000000  0.750000000  0.750000000
     0.500000000  0.500000000  0.500000000
     0.000000000  0.500000000  0.500000000
     0.750000000  0.750000000  0.250000000
     0.500000000  0.000000000  0.500000000
     0.000000000  0.500000000  0.000000000

  ion indices of the primitive-cell ions
   primitive index   ion index
                 1           1
                 2           2
                 3           3
                 4           4
                 5           5
                 6           6
                 7           7
                 8           8
                 9           9
                10          10
                11          11
                12          12
                13          13
                14          14
                15          15
                16          16

----------------------------------------------------------------------------------------

 
 
 KPOINTS: K-Spacing Value to Generate K-Mesh: 0.03

Automatic generation of k-mesh.
 Grid dimensions read from file:
 generate k-points for:    5    5    5

 Generating k-lattice:

  Cartesian coordinates                     Fractional coordinates (reciprocal lattice)
     0.030395137  0.000000000  0.000000000     0.200000000  0.000000000  0.000000000
     0.000000000  0.030395137  0.000000000     0.000000000  0.200000000  0.000000000
     0.000000000  0.000000000  0.030395137     0.000000000  0.000000000  0.200000000

  Length of vectors
     0.030395137  0.030395137  0.030395137

  Shift w.r.t. Gamma in fractional coordinates (k-lattice)
     0.000000000  0.000000000  0.000000000

 
 Subroutine IBZKPT returns following result:
 ===========================================
 
 Found     63 irreducible k-points:
 
 Following reciprocal coordinates:
            Coordinates               Weight
  0.000000  0.000000  0.000000      1.000000
  0.200000  0.000000  0.000000      2.000000
  0.000000  0.200000  0.000000      2.000000
  0.000000  0.000000  0.200000      2.000000
  0.400000  0.000000  0.000000      2.000000
  0.000000  0.400000  0.000000      2.000000
  0.000000  0.000000  0.400000      2.000000
  0.200000  0.200000  0.000000      2.000000
  0.000000  0.200000  0.200000      2.000000
  0.200000  0.000000  0.200000      2.000000
 -0.200000  0.200000  0.000000      2.000000
 -0.200000  0.000000  0.200000      2.000000
  0.000000 -0.200000  0.200000      2.000000
  0.400000  0.200000  0.000000      2.000000
  0.000000  0.400000  0.200000      2.000000
  0.200000  0.000000  0.400000      2.000000
 -0.200000  0.400000  0.000000      2.000000
 -0.400000  0.000000  0.200000      2.000000
  0.000000  0.200000  0.400000      2.000000
  0.000000 -0.400000  0.200000      2.000000
 -0.200000  0.000000  0.400000      2.000000
  0.400000  0.000000  0.200000      2.000000
  0.000000 -0.200000  0.400000      2.000000
  0.400000 -0.200000  0.000000      2.000000
  0.200000  0.400000  0.000000      2.000000
  0.400000  0.400000  0.000000      2.000000
  0.000000  0.400000  0.400000      2.000000
  0.400000  0.000000  0.400000      2.000000
 -0.400000  0.400000  0.000000      2.000000
 -0.400000  0.000000  0.400000      2.000000
  0.000000 -0.400000  0.400000      2.000000
  0.200000  0.200000  0.200000      2.000000
 -0.200000  0.200000  0.200000      2.000000
 -0.200000 -0.200000  0.200000      2.000000
  0.200000 -0.200000  0.200000      2.000000
  0.400000  0.200000  0.200000      2.000000
  0.200000  0.400000  0.200000      2.000000
  0.200000  0.200000  0.400000      2.000000
 -0.200000  0.400000  0.200000      2.000000
 -0.400000  0.200000  0.200000      2.000000
 -0.200000  0.200000  0.400000      2.000000
 -0.400000 -0.200000  0.200000      2.000000
 -0.200000 -0.400000  0.200000      2.000000
 -0.200000 -0.200000  0.400000      2.000000
  0.200000 -0.400000  0.200000      2.000000
  0.400000 -0.200000  0.200000      2.000000
  0.200000 -0.200000  0.400000      2.000000
  0.400000  0.400000  0.200000      2.000000
  0.200000  0.400000  0.400000      2.000000
  0.400000  0.200000  0.400000      2.000000
 -0.400000  0.400000  0.200000      2.000000
 -0.400000  0.200000  0.400000      2.000000
 -0.200000  0.400000  0.400000      2.000000
 -0.400000 -0.400000  0.200000      2.000000
 -0.200000 -0.400000  0.400000      2.000000
 -0.400000 -0.200000  0.400000      2.000000
  0.400000 -0.400000  0.200000      2.000000
  0.400000 -0.200000  0.400000      2.000000
  0.200000 -0.400000  0.400000      2.000000
  0.400000  0.400000  0.400000      2.000000
 -0.400000  0.400000  0.400000      2.000000
 -0.400000 -0.400000  0.400000      2.000000
  0.400000 -0.400000  0.400000      2.000000
 
 Following cartesian coordinates:
            Coordinates               Weight
  0.000000  0.000000  0.000000      1.000000
  0.030395  0.000000  0.000000      2.000000
  0.000000  0.030395  0.000000      2.000000
  0.000000  0.000000  0.030395      2.000000
  0.060790  0.000000  0.000000      2.000000
  0.000000  0.060790  0.000000      2.000000
  0.000000  0.000000  0.060790      2.000000
  0.030395  0.030395  0.000000      2.000000
  0.000000  0.030395  0.030395      2.000000
  0.030395  0.000000  0.030395      2.000000
 -0.030395  0.030395  0.000000      2.000000
 -0.030395  0.000000  0.030395      2.000000
  0.000000 -0.030395  0.030395      2.000000
  0.060790  0.030395  0.000000      2.000000
  0.000000  0.060790  0.030395      2.000000
  0.030395  0.000000  0.060790      2.000000
 -0.030395  0.060790  0.000000      2.000000
 -0.060790  0.000000  0.030395      2.000000
  0.000000  0.030395  0.060790      2.000000
  0.000000 -0.060790  0.030395      2.000000
 -0.030395  0.000000  0.060790      2.000000
  0.060790  0.000000  0.030395      2.000000
  0.000000 -0.030395  0.060790      2.000000
  0.060790 -0.030395  0.000000      2.000000
  0.030395  0.060790  0.000000      2.000000
  0.060790  0.060790  0.000000      2.000000
  0.000000  0.060790  0.060790      2.000000
  0.060790  0.000000  0.060790      2.000000
 -0.060790  0.060790  0.000000      2.000000
 -0.060790  0.000000  0.060790      2.000000
  0.000000 -0.060790  0.060790      2.000000
  0.030395  0.030395  0.030395      2.000000
 -0.030395  0.030395  0.030395      2.000000
 -0.030395 -0.030395  0.030395      2.000000
  0.030395 -0.030395  0.030395      2.000000
  0.060790  0.030395  0.030395      2.000000
  0.030395  0.060790  0.030395      2.000000
  0.030395  0.030395  0.060790      2.000000
 -0.030395  0.060790  0.030395      2.000000
 -0.060790  0.030395  0.030395      2.000000
 -0.030395  0.030395  0.060790      2.000000
 -0.060790 -0.030395  0.030395      2.000000
 -0.030395 -0.060790  0.030395      2.000000
 -0.030395 -0.030395  0.060790      2.000000
  0.030395 -0.060790  0.030395      2.000000
  0.060790 -0.030395  0.030395      2.000000
  0.030395 -0.030395  0.060790      2.000000
  0.060790  0.060790  0.030395      2.000000
  0.030395  0.060790  0.060790      2.000000
  0.060790  0.030395  0.060790      2.000000
 -0.060790  0.060790  0.030395      2.000000
 -0.060790  0.030395  0.060790      2.000000
 -0.030395  0.060790  0.060790      2.000000
 -0.060790 -0.060790  0.030395      2.000000
 -0.030395 -0.060790  0.060790      2.000000
 -0.060790 -0.030395  0.060790      2.000000
  0.060790 -0.060790  0.030395      2.000000
  0.060790 -0.030395  0.060790      2.000000
  0.030395 -0.060790  0.060790      2.000000
  0.060790  0.060790  0.060790      2.000000
 -0.060790  0.060790  0.060790      2.000000
 -0.060790 -0.060790  0.060790      2.000000
  0.060790 -0.060790  0.060790      2.000000
 


--------------------------------------------------------------------------------------------------------




 Dimension of arrays:
   k-points           NKPTS =     63   k-points in BZ     NKDIM =     63   number of bands    NBANDS=    124
   number of dos      NEDOS =    301   number of ions     NIONS =     16
   non local maximal  LDIM  =      6   non local SUM 2l+1 LMDIM =     18
   total plane-waves  NPLWV =  46656
   max r-space proj   IRMAX =      1   max aug-charges    IRDMAX=   9546
   dimension x,y,z NGX =    36 NGY =   36 NGZ =   36
   dimension x,y,z NGXF=    72 NGYF=   72 NGZF=   72
   support grid    NGXF=    72 NGYF=   72 NGZF=   72
   ions per type =               3   6   5   2
   NGX,Y,Z   is equivalent  to a cutoff of   9.10,  9.10,  9.10 a.u.
   NGXF,Y,Z  is equivalent  to a cutoff of  18.19, 18.19, 18.19 a.u.

 SYSTEM =  unknown system                          
 POSCAR =  Nb-Mo-Ta-W alloy                        

 Startparameter for this run:
   NWRITE =      2    write-flag & timer
   PREC   = accura    normal or accurate (medium, high low for compatibility)
   ISTART =      0    job   : 0-new  1-cont  2-samecut
   ICHARG =      2    charge: 1-file 2-atom 10-const
   ISPIN  =      1    spin polarized calculation?
   LNONCOLLINEAR =      F non collinear calculations
   LSORBIT =      F    spin-orbit coupling
   INIWAV =      1    electr: 0-lowe 1-rand  2-diag
   LASPH  =      F    aspherical Exc in radial PAW
 Electronic Relaxation 1
   ENCUT  =  250.0 eV  18.37 Ry    4.29 a.u.   8.48  8.48  8.48*2*pi/ulx,y,z
   ENINI  =  250.0     initial cutoff
   ENAUG  =  455.7 eV  augmentation charge cutoff
   NELM   =     80;   NELMIN=  2; NELMDL= -5     # of ELM steps 
   EDIFF  = 0.1E-07   stopping-criterion for ELM
   LREAL  =      F    real-space projection
   NLSPLINE    = F    spline interpolate recip. space projectors
   LCOMPAT=      F    compatible to vasp.4.4
   GGA_COMPAT  = T    GGA compatible to vasp.4.4-vasp.4.6
   LMAXPAW     = -100 max onsite density
   LMAXMIX     =    2 max onsite mixed and CHGCAR
   VOSKOWN=      0    Vosko Wilk Nusair interpolation
   ROPT   =    0.00000   0.00000   0.00000   0.00000
 Ionic relaxation
   EDIFFG = -.1E-01   stopping-criterion for IOM
   NSW    =      0    number of steps for IOM
   NBLOCK =      1;   KBLOCK =      1    inner block; outer block 
   IBRION =     -1    ionic relax: 0-MD 1-quasi-New 2-CG
   NFREE  =      0    steps in history (QN), initial steepest desc. (CG)
   ISIF   =      2    stress and relaxation
   IWAVPR =     10    prediction:  0-non 1-charg 2-wave 3-comb
   ISYM   =      2    0-nonsym 1-usesym 2-fastsym
   LCORR  =      T    Harris-Foulkes like correction to forces

   POTIM  = 0.5000    time-step for ionic-motion
   TEIN   =    0.0    initial temperature
   TEBEG  =    0.0;   TEEND  =   0.0 temperature during run
   SMASS  =  -3.00    Nose mass-parameter (am)
   estimated Nose-frequenzy (Omega)   =  0.10E-29 period in steps = 0.13E+47 mass=  -0.989E-27a.u.
   SCALEE = 1.0000    scale energy and forces
   NPACO  =    256;   APACO  = 10.0  distance and # of slots for P.C.
   PSTRESS=    0.0 pullay stress

  Mass of Ions in am
   POMASS =  92.91 95.94180.95183.85
  Ionic Valenz
   ZVAL   =  13.00 14.00 11.00 14.00
  Atomic Wigner-Seitz radii
   RWIGS  =  -1.00 -1.00 -1.00 -1.00
  virtual crystal weights 
   VCA    =   1.00  1.00  1.00  1.00
   NELECT =     206.0000    total number of electrons
   NUPDOWN=      -1.0000    fix difference up-down

 DOS related values:
   EMIN   =  10.00;   EMAX   =-10.00  energy-range for DOS
   EFERMI =   0.00
   ISMEAR =     0;   SIGMA  =   0.02  broadening in eV -4-tet -1-fermi 0-gaus

 Electronic relaxation 2 (details)
   IALGO  =     38    algorithm
   LDIAG  =      T    sub-space diagonalisation (order eigenvalues)
   LSUBROT=      F    optimize rotation matrix (better conditioning)
   TURBO    =      0    0=normal 1=particle mesh
   IRESTART =      0    0=no restart 2=restart with 2 vectors
   NREBOOT  =      0    no. of reboots
   NMIN     =      0    reboot dimension
   EREF     =   0.00    reference energy to select bands
   IMIX   =      4    mixing-type and parameters
     AMIX     =   0.40;   BMIX     =  1.00
     AMIX_MAG =   1.60;   BMIX_MAG =  1.00
     AMIN     =   0.10
     WC   =   100.;   INIMIX=   1;  MIXPRE=   1;  MAXMIX= -45

 Intra band minimization:
   WEIMIN = 0.0000     energy-eigenvalue tresh-hold
   EBREAK =  0.20E-10  absolut break condition
   DEPER  =   0.30     relativ break condition  

   TIME   =   0.40     timestep for ELM

  volume/ion in A,a.u.               =      17.81       120.16
  Fermi-wavevector in a.u.,A,eV,Ry     =   1.469393  2.776750 29.376560  2.159116
  Thomas-Fermi vector in A             =   2.584776
 
 Write flags
   LWAVE        =      F    write WAVECAR
   LDOWNSAMPLE  =      F    k-point downsampling of WAVECAR
   LCHARG       =      F    write CHGCAR
   LVTOT        =      F    write LOCPOT, total local potential
   LVHAR        =      F    write LOCPOT, Hartree potential only
   LELF         =      F    write electronic localiz. function (ELF)
   LORBIT       =      0    0 simple, 1 ext, 2 COOP (PROOUT), +10 PAW based schemes


 Dipole corrections
   LMONO  =      F    monopole corrections only (constant potential shift)
   LDIPOL =      F    correct potential (dipole corrections)
   IDIPOL =      0    1-x, 2-y, 3-z, 4-all directions 
   EPSILON=  1.0000000 bulk dielectric constant

 Core level calculations are selected ICORELEVEL =  1
 Exchange correlation treatment:
   GGA     =    PE    GGA type
   LEXCH   =     8    internal setting for exchange type
   LIBXC   =     F    Libxc                    
   VOSKOWN =     0    Vosko Wilk Nusair interpolation
   LHFCALC =     F    Hartree Fock is set to
   LHFONE  =     F    Hartree Fock one center treatment
   AEXX    =    0.0000 exact exchange contribution

 Linear response parameters
   LEPSILON=     F    determine dielectric tensor
   LRPA    =     F    only Hartree local field effects (RPA)
   LNABLA  =     F    use nabla operator in PAW spheres
   LVEL    =     F    velocity operator in full k-point grid
   CSHIFT  =0.1000    complex shift for real part using Kramers Kronig
   OMEGAMAX=  -1.0    maximum frequency
   DEG_THRESHOLD= 0.2000000E-02 threshold for treating states as degnerate
   RTIME   =   -0.100 relaxation time in fs
  (WPLASMAI=    0.000 imaginary part of plasma frequency in eV, 0.658/RTIME)
   DFIELD  = 0.0000000 0.0000000 0.0000000 field for delta impulse in time
 
  Optional k-point grid parameters
   LKPOINTS_OPT  =     F    use optional k-point grid
   KPOINTS_OPT_MODE=     1    mode for optional k-point grid
 
 Orbital magnetization related:
   ORBITALMAG=     F  switch on orbital magnetization
   LCHIMAG   =     F  perturbation theory with respect to B field
   DQ        =  0.001000  dq finite difference perturbation B field
   LLRAUG    =     F  two centre corrections for induced B field



--------------------------------------------------------------------------------------------------------


 Static calculation
 charge density and potential will be updated during run
 non-spin polarized calculation
 Variant of blocked Davidson
 Davidson routine will perform the subspace rotation
 perform sub-space diagonalisation
    after iterative eigenvector-optimisation
 modified Broyden-mixing scheme, WC =      100.0
 initial mixing is a Kerker type mixing with AMIX =  0.4000 and BMIX =      1.0000
 Hartree-type preconditioning will be used
 using additional bands           21
 reciprocal scheme for non local part
 use partial core corrections
 calculate Harris-corrections to forces 
   (improved forces if not selfconsistent)
 use gradient corrections 
 use of overlap-Matrix (Vanderbilt PP)
 Gauss-broadening in eV      SIGMA  =   0.02


--------------------------------------------------------------------------------------------------------


  energy-cutoff  :      250.00
  volume of cell :      284.89
      direct lattice vectors                 reciprocal lattice vectors
     6.580000000  0.000000000  0.000000000     0.151975684  0.000000000  0.000000000
     0.000000000  6.580000000  0.000000000     0.000000000  0.151975684  0.000000000
     0.000000000  0.000000000  6.580000000     0.000000000  0.000000000  0.151975684

  length of vectors
     6.580000000  6.580000000  6.580000000     0.151975684  0.151975684  0.151975684


 
 k-points in units of 2pi/SCALE and weight: K-Spacing Value to Generate K-Mesh: 0.03
   0.00000000  0.00000000  0.00000000       0.008
   0.03039514  0.00000000  0.00000000       0.016
   0.00000000  0.03039514  0.00000000       0.016
   0.00000000  0.00000000  0.03039514       0.016
   0.06079027  0.00000000  0.00000000       0.016
   0.00000000  0.06079027  0.00000000       0.016
   0.00000000  0.00000000  0.06079027       0.016
   0.03039514  0.03039514  0.00000000       0.016
   0.00000000  0.03039514  0.03039514       0.016
   0.03039514  0.00000000  0.03039514       0.016
  -0.03039514  0.03039514  0.00000000       0.016
  -0.03039514  0.00000000  0.03039514       0.016
   0.00000000 -0.03039514  0.03039514       0.016
   0.06079027  0.03039514  0.00000000       0.016
   0.00000000  0.06079027  0.03039514       0.016
   0.03039514  0.00000000  0.06079027       0.016
  -0.03039514  0.06079027  0.00000000       0.016
  -0.06079027  0.00000000  0.03039514       0.016
   0.00000000  0.03039514  0.06079027       0.016
   0.00000000 -0.06079027  0.03039514       0.016
  -0.03039514  0.00000000  0.06079027       0.016
   0.06079027  0.00000000  0.03039514       0.016
   0.00000000 -0.03039514  0.06079027       0.016
   0.06079027 -0.03039514  0.00000000       0.016
   0.03039514  0.06079027  0.00000000       0.016
   0.06079027  0.06079027  0.00000000       0.016
   0.00000000  0.06079027  0.06079027       0.016
   0.06079027  0.00000000  0.06079027       0.016
  -0.06079027  0.06079027  0.00000000       0.016
  -0.06079027  0.00000000  0.06079027       0.016
   0.00000000 -0.06079027  0.06079027       0.016
   0.03039514  0.03039514  0.03039514       0.016
  -0.03039514  0.03039514  0.03039514       0.016
  -0.03039514 -0.03039514  0.03039514       0.016
   0.03039514 -0.03039514  0.03039514       0.016
   0.06079027  0.03039514  0.03039514       0.016
   0.03039514  0.06079027  0.03039514       0.016
   0.03039514  0.03039514  0.06079027       0.016
  -0.03039514  0.06079027  0.03039514       0.016
  -0.06079027  0.03039514  0.03039514       0.016
  -0.03039514  0.03039514  0.06079027       0.016
  -0.06079027 -0.03039514  0.03039514       0.016
  -0.03039514 -0.06079027  0.03039514       0.016
  -0.03039514 -0.03039514  0.06079027       0.016
   0.03039514 -0.06079027  0.03039514       0.016
   0.06079027 -0.03039514  0.03039514       0.016
   0.03039514 -0.03039514  0.06079027       0.016
   0.06079027  0.06079027  0.03039514       0.016
   0.03039514  0.06079027  0.06079027       0.016
   0.06079027  0.03039514  0.06079027       0.016
  -0.06079027  0.06079027  0.03039514       0.016
  -0.06079027  0.03039514  0.06079027       0.016
  -0.03039514  0.06079027  0.06079027       0.016
  -0.06079027 -0.06079027  0.03039514       0.016
  -0.03039514 -0.06079027  0.06079027       0.016
  -0.06079027 -0.03039514  0.06079027       0.016
   0.06079027 -0.06079027  0.03039514       0.016
   0.06079027 -0.03039514  0.06079027       0.016
   0.03039514 -0.06079027  0.06079027       0.016
   0.06079027  0.06079027  0.06079027       0.016
  -0.06079027  0.06079027  0.06079027       0.016
  -0.06079027 -0.06079027  0.06079027       0.016
   0.06079027 -0.06079027  0.06079027       0.016
 
 k-points in reciprocal lattice and weights: K-Spacing Value to Generate K-Mesh: 0.03
   0.00000000  0.00000000  0.00000000       0.008
   0.20000000  0.00000000  0.00000000       0.016
   0.00000000  0.20000000  0.00000000       0.016
   0.00000000  0.00000000  0.20000000       0.016
   0.40000000  0.00000000  0.00000000       0.016
   0.00000000  0.40000000  0.00000000       0.016
   0.00000000  0.00000000  0.40000000       0.016
   0.20000000  0.20000000  0.00000000       0.016
   0.00000000  0.20000000  0.20000000       0.016
   0.20000000  0.00000000  0.20000000       0.016
  -0.20000000  0.20000000  0.00000000       0.016
  -0.20000000  0.00000000  0.20000000       0.016
   0.00000000 -0.20000000  0.20000000       0.016
   0.40000000  0.20000000  0.00000000       0.016
   0.00000000  0.40000000  0.20000000       0.016
   0.20000000  0.00000000  0.40000000       0.016
  -0.20000000  0.40000000  0.00000000       0.016
  -0.40000000  0.00000000  0.20000000       0.016
   0.00000000  0.20000000  0.40000000       0.016
   0.00000000 -0.40000000  0.20000000       0.016
  -0.20000000  0.00000000  0.40000000       0.016
   0.40000000  0.00000000  0.20000000       0.016
   0.00000000 -0.20000000  0.40000000       0.016
   0.40000000 -0.20000000  0.00000000       0.016
   0.20000000  0.40000000  0.00000000       0.016
   0.40000000  0.40000000  0.00000000       0.016
   0.00000000  0.40000000  0.40000000       0.016
   0.40000000  0.00000000  0.40000000       0.016
  -0.40000000  0.40000000  0.00000000       0.016
  -0.40000000  0.00000000  0.40000000       0.016
   0.00000000 -0.40000000  0.40000000       0.016
   0.20000000  0.20000000  0.20000000       0.016
  -0.20000000  0.20000000  0.20000000       0.016
  -0.20000000 -0.20000000  0.20000000       0.016
   0.20000000 -0.20000000  0.20000000       0.016
   0.40000000  0.20000000  0.20000000       0.016
   0.20000000  0.40000000  0.20000000       0.016
   0.20000000  0.20000000  0.40000000       0.016
  -0.20000000  0.40000000  0.20000000       0.016
  -0.40000000  0.20000000  0.20000000       0.016
  -0.20000000  0.20000000  0.40000000       0.016
  -0.40000000 -0.20000000  0.20000000       0.016
  -0.20000000 -0.40000000  0.20000000       0.016
  -0.20000000 -0.20000000  0.40000000       0.016
   0.20000000 -0.40000000  0.20000000       0.016
   0.40000000 -0.20000000  0.20000000       0.016
   0.20000000 -0.20000000  0.40000000       0.016
   0.40000000  0.40000000  0.20000000       0.016
   0.20000000  0.40000000  0.40000000       0.016
   0.40000000  0.20000000  0.40000000       0.016
  -0.40000000  0.40000000  0.20000000       0.016
  -0.40000000  0.20000000  0.40000000       0.016
  -0.20000000  0.40000000  0.40000000       0.016
  -0.40000000 -0.40000000  0.20000000       0.016
  -0.20000000 -0.40000000  0.40000000       0.016
  -0.40000000 -0.20000000  0.40000000       0.016
   0.40000000 -0.40000000  0.20000000       0.016
   0.40000000 -0.20000000  0.40000000       0.016
   0.20000000 -0.40000000  0.40000000       0.016
   0.40000000  0.40000000  0.40000000       0.016
  -0.40000000  0.40000000  0.40000000       0.016
  -0.40000000 -0.40000000  0.40000000       0.016
   0.40000000 -0.40000000  0.40000000       0.016
 
 position of ions in fractional coordinates (direct lattice) 
   0.75000000  0.25000000  0.75000000
   0.25000000  0.25000000  0.25000000
   0.50000000  0.00000000  0.00000000
   0.75000000  0.25000000  0.25000000
   0.25000000  0.25000000  0.75000000
   0.50000000  0.50000000  0.00000000
   0.25000000  0.75000000  0.25000000
   0.00000000  0.00000000  0.50000000
   0.25000000  0.75000000  0.75000000
   0.00000000  0.00000000  0.00000000
   0.75000000  0.75000000  0.75000000
   0.50000000  0.50000000  0.50000000
   0.00000000  0.50000000  0.50000000
   0.75000000  0.75000000  0.25000000
   0.50000000  0.00000000  0.50000000
   0.00000000  0.50000000  0.00000000
 
 position of ions in cartesian coordinates  (Angst):
   4.93500000  1.64500000  4.93500000
   1.64500000  1.64500000  1.64500000
   3.29000000  0.00000000  0.00000000
   4.93500000  1.64500000  1.64500000
   1.64500000  1.64500000  4.93500000
   3.29000000  3.29000000  0.00000000
   1.64500000  4.93500000  1.64500000
   0.00000000  0.00000000  3.29000000
   1.64500000  4.93500000  4.93500000
   0.00000000  0.00000000  0.00000000
   4.93500000  4.93500000  4.93500000
   3.29000000  3.29000000  3.29000000
   0.00000000  3.29000000  3.29000000
   4.93500000  4.93500000  1.64500000
   3.29000000  0.00000000  3.29000000
   0.00000000  3.29000000  0.00000000
 


--------------------------------------------------------------------------------------------------------


 k-point   1 :   0.0000 0.0000 0.0000  plane waves:    2517
 k-point   2 :   0.2000 0.0000 0.0000  plane waves:    2545
 k-point   3 :   0.0000 0.2000 0.0000  plane waves:    2545
 k-point   4 :   0.0000 0.0000 0.2000  plane waves:    2545
 k-point   5 :   0.4000 0.0000 0.0000  plane waves:    2569
 k-point   6 :   0.0000 0.4000 0.0000  plane waves:    2569
 k-point   7 :   0.0000 0.0000 0.4000  plane waves:    2569
 k-point   8 :   0.2000 0.2000 0.0000  plane waves:    2562
 k-point   9 :   0.0000 0.2000 0.2000  plane waves:    2562
 k-point  10 :   0.2000 0.0000 0.2000  plane waves:    2562
 k-point  11 :  -0.2000 0.2000 0.0000  plane waves:    2562
 k-point  12 :  -0.2000 0.0000 0.2000  plane waves:    2562
 k-point  13 :   0.0000-0.2000 0.2000  plane waves:    2562
 k-point  14 :   0.4000 0.2000 0.0000  plane waves:    2566
 k-point  15 :   0.0000 0.4000 0.2000  plane waves:    2566
 k-point  16 :   0.2000 0.0000 0.4000  plane waves:    2566
 k-point  17 :  -0.2000 0.4000 0.0000  plane waves:    2566
 k-point  18 :  -0.4000 0.0000 0.2000  plane waves:    2566
 k-point  19 :   0.0000 0.2000 0.4000  plane waves:    2566
 k-point  20 :   0.0000-0.4000 0.2000  plane waves:    2566
 k-point  21 :  -0.2000 0.0000 0.4000  plane waves:    2566
 k-point  22 :   0.4000 0.0000 0.2000  plane waves:    2566
 k-point  23 :   0.0000-0.2000 0.4000  plane waves:    2566
 k-point  24 :   0.4000-0.2000 0.0000  plane waves:    2566
 k-point  25 :   0.2000 0.4000 0.0000  plane waves:    2566
 k-point  26 :   0.4000 0.4000 0.0000  plane waves:    2570
 k-point  27 :   0.0000 0.4000 0.4000  plane waves:    2570
 k-point  28 :   0.4000 0.0000 0.4000  plane waves:    2570
 k-point  29 :  -0.4000 0.4000 0.0000  plane waves:    2570
 k-point  30 :  -0.4000 0.0000 0.4000  plane waves:    2570
 k-point  31 :   0.0000-0.4000 0.4000  plane waves:    2570
 k-point  32 :   0.2000 0.2000 0.2000  plane waves:    2572
 k-point  33 :  -0.2000 0.2000 0.2000  plane waves:    2572
 k-point  34 :  -0.2000-0.2000 0.2000  plane waves:    2572
 k-point  35 :   0.2000-0.2000 0.2000  plane waves:    2572
 k-point  36 :   0.4000 0.2000 0.2000  plane waves:    2546
 k-point  37 :   0.2000 0.4000 0.2000  plane waves:    2546
 k-point  38 :   0.2000 0.2000 0.4000  plane waves:    2546
 k-point  39 :  -0.2000 0.4000 0.2000  plane waves:    2546
 k-point  40 :  -0.4000 0.2000 0.2000  plane waves:    2546
 k-point  41 :  -0.2000 0.2000 0.4000  plane waves:    2546
 k-point  42 :  -0.4000-0.2000 0.2000  plane waves:    2546
 k-point  43 :  -0.2000-0.4000 0.2000  plane waves:    2546
 k-point  44 :  -0.2000-0.2000 0.4000  plane waves:    2546
 k-point  45 :   0.2000-0.4000 0.2000  plane waves:    2546
 k-point  46 :   0.4000-0.2000 0.2000  plane waves:    2546
 k-point  47 :   0.2000-0.2000 0.4000  plane waves:    2546
 k-point  48 :   0.4000 0.4000 0.2000  plane waves:    2549
 k-point  49 :   0.2000 0.4000 0.4000  plane waves:    2549
 k-point  50 :   0.4000 0.2000 0.4000  plane waves:    2549
 k-point  51 :  -0.4000 0.4000 0.2000  plane waves:    2549
 k-point  52 :  -0.4000 0.2000 0.4000  plane waves:    2549
 k-point  53 :  -0.2000 0.4000 0.4000  plane waves:    2549
 k-point  54 :  -0.4000-0.4000 0.2000  plane waves:    2549
 k-point  55 :  -0.2000-0.4000 0.4000  plane waves:    2549
 k-point  56 :  -0.4000-0.2000 0.4000  plane waves:    2549
 k-point  57 :   0.4000-0.4000 0.2000  plane waves:    2549
 k-point  58 :   0.4000-0.2000 0.4000  plane waves:    2549
 k-point  59 :   0.2000-0.4000 0.4000  plane waves:    2549
 k-point  60 :   0.4000 0.4000 0.4000  plane waves:    2533
 k-point  61 :  -0.4000 0.4000 0.4000  plane waves:    2533
 k-point  62 :  -0.4000-0.4000 0.4000  plane waves:    2533
 k-point  63 :   0.4000-0.4000 0.4000  plane waves:    2533

 maximum and minimum number of plane-waves per node :       235      194

 maximum number of plane-waves:      2572
 maximum index in each direction: 
   IXMAX=    8   IYMAX=    8   IZMAX=    8
   IXMIN=   -8   IYMIN=   -8   IZMIN=   -8


 parallel 3D FFT for wavefunctions:
    minimum data exchange during FFTs selected (reduces bandwidth)
 parallel 3D FFT for charge:
    minimum data exchange during FFTs selected (reduces bandwidth)


 total amount of memory used by VASP MPI-rank0    47987. kBytes
=======================================================================

   base      :      30000. kBytes
   nonl-proj :       8332. kBytes
   fftplans  :        456. kBytes
   grid      :        919. kBytes
   one-center:         31. kBytes
   wavefun   :       8249. kBytes
 
     INWAV:  cpu time      0.0000: real time      0.0002
 Broyden mixing: mesh for mixing (old mesh)
   NGX = 17   NGY = 17   NGZ = 17
  (NGX  = 72   NGY  = 72   NGZ  = 72)
  gives a total of   4913 points

 initial charge density was supplied:
 charge density of overlapping atoms calculated
 number of electron     206.0000000 magnetization 
 keeping initial charge density in first step


--------------------------------------------------------------------------------------------------------


 Maximum index for augmentation-charges          517 (set IRDMAX)


--------------------------------------------------------------------------------------------------------


 First call to EWALD:  gamma=   0.269
 Maximum number of real-space cells 3x 3x 3
 Maximum number of reciprocal cells 3x 3x 3

    FEWALD:  cpu time      0.0012: real time      0.0012


--------------------------------------- Iteration      1(   1)  ---------------------------------------


    POTLOK:  cpu time      0.0453: real time      0.3625
    SETDIJ:  cpu time      0.0029: real time      0.0029
     EDDAV:  cpu time      3.1608: real time      3.1742
       DOS:  cpu time      0.0042: real time      0.0042
    --------------------------------------------
      LOOP:  cpu time      3.2132: real time      3.5439

 eigenvalue-minimisations  : 16536
 total energy-change (2. order) : 0.1836832E+04  (-0.8224965E+04)
 number of electron     206.0000000 magnetization 
 augmentation part      206.0000000 magnetization 

 Free energy of the ion-electron system (eV)
  ---------------------------------------------------
  alpha Z        PSCENC =      1820.73498954
  Ewald energy   TEWEN  =    -21201.38111430
  -Hartree energ DENC   =     -4015.82729657
  -exchange      EXHF   =         0.00000000
  -V(xc)+E(xc)   XCENC  =       800.64827296
  PAW double counting   =     19719.98142885   -19424.31505131
  entropy T*S    EENTRO =        -0.00074937
  eigenvalues    EBANDS =      -667.82929658
  atomic energy  EATOM  =     24804.82090209
  Solvation  Ediel_sol  =         0.00000000
  ---------------------------------------------------
  free energy    TOTEN  =      1836.83208532 eV

  energy without entropy =     1836.83283469  energy(sigma->0) =     1836.83246001


--------------------------------------------------------------------------------------------------------




--------------------------------------- Iteration      1(   2)  ---------------------------------------


     EDDAV:  cpu time      3.1092: real time      3.1220
       DOS:  cpu time      0.0045: real time      0.0045
    --------------------------------------------
      LOOP:  cpu time      3.1137: real time      3.1264

 eigenvalue-minimisations  : 16344
 total energy-change (2. order) :-0.1875309E+04  (-0.1812669E+04)
 number of electron     206.0000000 magnetization 
 augmentation part      206.0000000 magnetization 

 Free energy of the ion-electron system (eV)
  ---------------------------------------------------
  alpha Z        PSCENC =      1820.73498954
  Ewald energy   TEWEN  =    -21201.38111430
  -Hartree energ DENC   =     -4015.82729657
  -exchange      EXHF   =         0.00000000
  -V(xc)+E(xc)   XCENC  =       800.64827296
  PAW double counting   =     19719.98142885   -19424.31505131
  entropy T*S    EENTRO =        -0.00190448
  eigenvalues    EBANDS =     -2543.13722692
  atomic energy  EATOM  =     24804.82090209
  Solvation  Ediel_sol  =         0.00000000
  ---------------------------------------------------
  free energy    TOTEN  =       -38.47700013 eV

  energy without entropy =      -38.47509565  energy(sigma->0) =      -38.47604789


--------------------------------------------------------------------------------------------------------




--------------------------------------- Iteration      1(   3)  ---------------------------------------


     EDDAV:  cpu time      4.1005: real time      4.1177
       DOS:  cpu time      0.0047: real time      0.0047
    --------------------------------------------
      LOOP:  cpu time      4.1051: real time      4.1223

 eigenvalue-minimisations  : 23520
 total energy-change (2. order) :-0.1444096E+03  (-0.1364485E+03)
 number of electron     206.0000000 magnetization 
 augmentation part      206.0000000 magnetization 

 Free energy of the ion-electron system (eV)
  ---------------------------------------------------
  alpha Z        PSCENC =      1820.73498954
  Ewald energy   TEWEN  =    -21201.38111430
  -Hartree energ DENC   =     -4015.82729657
  -exchange      EXHF   =         0.00000000
  -V(xc)+E(xc)   XCENC  =       800.64827296
  PAW double counting   =     19719.98142885   -19424.31505131
  entropy T*S    EENTRO =        -0.00229519
  eigenvalues    EBANDS =     -2687.54646151
  atomic energy  EATOM  =     24804.82090209
  Solvation  Ediel_sol  =         0.00000000
  ---------------------------------------------------
  free energy    TOTEN  =      -182.88662543 eV

  energy without entropy =     -182.88433024  energy(sigma->0) =     -182.88547783


--------------------------------------------------------------------------------------------------------




--------------------------------------- Iteration      1(   4)  ---------------------------------------


     EDDAV:  cpu time      3.9957: real time      4.0118
       DOS:  cpu time      0.0043: real time      0.0043
    --------------------------------------------
      LOOP:  cpu time      4.0000: real time      4.0161

 eigenvalue-minimisations  : 22928
 total energy-change (2. order) :-0.8319056E+01  (-0.8082370E+01)
 number of electron     206.0000000 magnetization 
 augmentation part      206.0000000 magnetization 

 Free energy of the ion-electron system (eV)
  ---------------------------------------------------
  alpha Z        PSCENC =      1820.73498954
  Ewald energy   TEWEN  =    -21201.38111430
  -Hartree energ DENC   =     -4015.82729657
  -exchange      EXHF   =         0.00000000
  -V(xc)+E(xc)   XCENC  =       800.64827296
  PAW double counting   =     19719.98142885   -19424.31505131
  entropy T*S    EENTRO =        -0.00244406
  eigenvalues    EBANDS =     -2695.86536902
  atomic energy  EATOM  =     24804.82090209
  Solvation  Ediel_sol  =         0.00000000
  ---------------------------------------------------
  free energy    TOTEN  =      -191.20568182 eV

  energy without entropy =     -191.20323775  energy(sigma->0) =     -191.20445979


--------------------------------------------------------------------------------------------------------




--------------------------------------- Iteration      1(   5)  ---------------------------------------


     EDDAV:  cpu time      4.3223: real time      4.3452
       DOS:  cpu time      0.0046: real time      0.0046
    CHARGE:  cpu time      0.0845: real time      0.0847
    MIXING:  cpu time      0.0004: real time      0.0004
    --------------------------------------------
      LOOP:  cpu time      4.4118: real time      4.4350

 eigenvalue-minimisations  : 24168
 total energy-change (2. order) :-0.4656602E+00  (-0.4610869E+00)
 number of electron     205.9999780 magnetization 
 augmentation part       41.5239133 magnetization 

 Broyden mixing:
  rms(total) = 0.51613E+01    rms(broyden)= 0.51601E+01
  rms(prec ) = 0.57171E+01
  weight for this iteration     100.00

 Free energy of the ion-electron system (eV)
  ---------------------------------------------------
  alpha Z        PSCENC =      1820.73498954
  Ewald energy   TEWEN  =    -21201.38111430
  -Hartree energ DENC   =     -4015.82729657
  -exchange      EXHF   =         0.00000000
  -V(xc)+E(xc)   XCENC  =       800.64827296
  PAW double counting   =     19719.98142885   -19424.31505131
  entropy T*S    EENTRO =        -0.00254532
  eigenvalues    EBANDS =     -2696.33092799
  atomic energy  EATOM  =     24804.82090209
  Solvation  Ediel_sol  =         0.00000000
  ---------------------------------------------------
  free energy    TOTEN  =      -191.67134204 eV

  energy without entropy =     -191.66879672  energy(sigma->0) =     -191.67006938


--------------------------------------------------------------------------------------------------------




--------------------------------------- Iteration      1(   6)  ---------------------------------------


    POTLOK:  cpu time      0.0046: real time      0.0047
    SETDIJ:  cpu time      0.0018: real time      0.0018
     EDDAV:  cpu time      3.4154: real time      3.4295
       DOS:  cpu time      0.0046: real time      0.0046
    CHARGE:  cpu time      0.0840: real time      0.0843
    MIXING:  cpu time      0.0003: real time      0.0003
    --------------------------------------------
      LOOP:  cpu time      3.5107: real time      3.5252

 eigenvalue-minimisations  : 18280
 total energy-change (2. order) : 0.7533600E+01  (-0.2334793E+01)
 number of electron     205.9999765 magnetization 
 augmentation part       43.4558032 magnetization 

 Broyden mixing:
  rms(total) = 0.19077E+01    rms(broyden)= 0.19073E+01
  rms(prec ) = 0.23884E+01
  weight for this iteration     100.00

 eigenvalues of (default mixing * dielectric matrix)
  average eigenvalue GAMMA=   1.3685
  1.3685

 Free energy of the ion-electron system (eV)
  ---------------------------------------------------
  alpha Z        PSCENC =      1820.73498954
  Ewald energy   TEWEN  =    -21201.38111430
  -Hartree energ DENC   =     -3786.17323729
  -exchange      EXHF   =         0.00000000
  -V(xc)+E(xc)   XCENC  =       789.36100424
  PAW double counting   =     22938.87048144   -22671.99242648
  entropy T*S    EENTRO =        -0.00251559
  eigenvalues    EBANDS =     -2878.37582601
  atomic energy  EATOM  =     24804.82090209
  Solvation  Ediel_sol  =         0.00000000
  ---------------------------------------------------
  free energy    TOTEN  =      -184.13774235 eV

  energy without entropy =     -184.13522676  energy(sigma->0) =     -184.13648456


--------------------------------------------------------------------------------------------------------




--------------------------------------- Iteration      1(   7)  ---------------------------------------


    POTLOK:  cpu time      0.0045: real time      0.0047
    SETDIJ:  cpu time      0.0017: real time      0.0018
     EDDAV:  cpu time      3.9338: real time      3.9492
       DOS:  cpu time      0.0045: real time      0.0046
    CHARGE:  cpu time      0.0843: real time      0.0846
    MIXING:  cpu time      0.0003: real time      0.0003
    --------------------------------------------
      LOOP:  cpu time      4.0292: real time      4.0451

 eigenvalue-minimisations  : 22296
 total energy-change (2. order) : 0.1095450E+00  (-0.1639492E+01)
 number of electron     205.9999776 magnetization 
 augmentation part       43.1579727 magnetization 

 Broyden mixing:
  rms(total) = 0.11535E+01    rms(broyden)= 0.11532E+01
  rms(prec ) = 0.22996E+01
  weight for this iteration     100.00

 eigenvalues of (default mixing * dielectric matrix)
  average eigenvalue GAMMA=   1.1209
  1.6428  0.5991

 Free energy of the ion-electron system (eV)
  ---------------------------------------------------
  alpha Z        PSCENC =      1820.73498954
  Ewald energy   TEWEN  =    -21201.38111430
  -Hartree energ DENC   =     -3736.72474132
  -exchange      EXHF   =         0.00000000
  -V(xc)+E(xc)   XCENC  =       786.27299300
  PAW double counting   =     24916.33779052   -24658.03178111
  entropy T*S    EENTRO =        -0.00191034
  eigenvalues    EBANDS =     -2916.05532540
  atomic energy  EATOM  =     24804.82090209
  Solvation  Ediel_sol  =         0.00000000
  ---------------------------------------------------
  free energy    TOTEN  =      -184.02819732 eV

  energy without entropy =     -184.02628697  energy(sigma->0) =     -184.02724214


--------------------------------------------------------------------------------------------------------




--------------------------------------- Iteration      1(   8)  ---------------------------------------


    POTLOK:  cpu time      0.0046: real time      0.0047
    SETDIJ:  cpu time      0.0017: real time      0.0017
     EDDAV:  cpu time      3.5965: real time      3.6111
       DOS:  cpu time      0.0042: real time      0.0043
    CHARGE:  cpu time      0.0838: real time      0.0840
    MIXING:  cpu time      0.0002: real time      0.0003
    --------------------------------------------
      LOOP:  cpu time      3.6911: real time      3.7061

 eigenvalue-minimisations  : 20056
 total energy-change (2. order) : 0.1877713E+01  (-0.8169704E+00)
 number of electron     205.9999768 magnetization 
 augmentation part       43.7012022 magnetization 

 Broyden mixing:
  rms(total) = 0.45583E+00    rms(broyden)= 0.45524E+00
  rms(prec ) = 0.79833E+00
  weight for this iteration     100.00

 eigenvalues of (default mixing * dielectric matrix)
  average eigenvalue GAMMA=   1.0604
  1.7654  0.9934  0.4223

 Free energy of the ion-electron system (eV)
  ---------------------------------------------------
  alpha Z        PSCENC =      1820.73498954
  Ewald energy   TEWEN  =    -21201.38111430
  -Hartree energ DENC   =     -3687.76127207
  -exchange      EXHF   =         0.00000000
  -V(xc)+E(xc)   XCENC  =       784.11890508
  PAW double counting   =     25803.44189399   -25551.28312424
  entropy T*S    EENTRO =        -0.00128873
  eigenvalues    EBANDS =     -2954.84037552
  atomic energy  EATOM  =     24804.82090209
  Solvation  Ediel_sol  =         0.00000000
  ---------------------------------------------------
  free energy    TOTEN  =      -182.15048415 eV

  energy without entropy =     -182.14919542  energy(sigma->0) =     -182.14983978


--------------------------------------------------------------------------------------------------------




--------------------------------------- Iteration      1(   9)  ---------------------------------------


    POTLOK:  cpu time      0.0046: real time      0.0047
    SETDIJ:  cpu time      0.0018: real time      0.0018
     EDDAV:  cpu time      3.6835: real time      3.6983
       DOS:  cpu time      0.0044: real time      0.0044
    CHARGE:  cpu time      0.0835: real time      0.0838
    MIXING:  cpu time      0.0003: real time      0.0003
    --------------------------------------------
      LOOP:  cpu time      3.7780: real time      3.7933

 eigenvalue-minimisations  : 20636
 total energy-change (2. order) : 0.5146855E-01  (-0.1662733E+00)
 number of electron     205.9999768 magnetization 
 augmentation part       43.8148588 magnetization 

 Broyden mixing:
  rms(total) = 0.34812E+00    rms(broyden)= 0.34806E+00
  rms(prec ) = 0.51883E+00
  weight for this iteration     100.00

 eigenvalues of (default mixing * dielectric matrix)
  average eigenvalue GAMMA=   1.1038
  2.0511  1.4883  0.5173  0.3584

 Free energy of the ion-electron system (eV)
  ---------------------------------------------------
  alpha Z        PSCENC =      1820.73498954
  Ewald energy   TEWEN  =    -21201.38111430
  -Hartree energ DENC   =     -3680.64302674
  -exchange      EXHF   =         0.00000000
  -V(xc)+E(xc)   XCENC  =       783.79601641
  PAW double counting   =     26094.65760478   -25843.02032318
  entropy T*S    EENTRO =        -0.00246784
  eigenvalues    EBANDS =     -2961.06159636
  atomic energy  EATOM  =     24804.82090209
  Solvation  Ediel_sol  =         0.00000000
  ---------------------------------------------------
  free energy    TOTEN  =      -182.09901560 eV

  energy without entropy =     -182.09654776  energy(sigma->0) =     -182.09778168


--------------------------------------------------------------------------------------------------------




--------------------------------------- Iteration      1(  10)  ---------------------------------------


    POTLOK:  cpu time      0.0045: real time      0.0047
    SETDIJ:  cpu time      0.0017: real time      0.0018
     EDDAV:  cpu time      3.6145: real time      3.6293
       DOS:  cpu time      0.0041: real time      0.0041
    CHARGE:  cpu time      0.0835: real time      0.0838
    MIXING:  cpu time      0.0003: real time      0.0003
    --------------------------------------------
      LOOP:  cpu time      3.7087: real time      3.7239

 eigenvalue-minimisations  : 20216
 total energy-change (2. order) : 0.4806226E-01  (-0.4258502E-01)
 number of electron     205.9999769 magnetization 
 augmentation part       43.7359383 magnetization 

 Broyden mixing:
  rms(total) = 0.14650E+00    rms(broyden)= 0.14645E+00
  rms(prec ) = 0.22977E+00
  weight for this iteration     100.00

 eigenvalues of (default mixing * dielectric matrix)
  average eigenvalue GAMMA=   1.1446
  2.4285  1.6972  0.8236  0.4236  0.3503

 Free energy of the ion-electron system (eV)
  ---------------------------------------------------
  alpha Z        PSCENC =      1820.73498954
  Ewald energy   TEWEN  =    -21201.38111430
  -Hartree energ DENC   =     -3681.15244075
  -exchange      EXHF   =         0.00000000
  -V(xc)+E(xc)   XCENC  =       783.78433618
  PAW double counting   =     26411.69019580   -26159.38231427
  entropy T*S    EENTRO =        -0.00142332
  eigenvalues    EBANDS =     -2961.16408431
  atomic energy  EATOM  =     24804.82090209
  Solvation  Ediel_sol  =         0.00000000
  ---------------------------------------------------
  free energy    TOTEN  =      -182.05095334 eV

  energy without entropy =     -182.04953002  energy(sigma->0) =     -182.05024168


--------------------------------------------------------------------------------------------------------




--------------------------------------- Iteration      1(  11)  ---------------------------------------


    POTLOK:  cpu time      0.0045: real time      0.0047
    SETDIJ:  cpu time      0.0017: real time      0.0017
     EDDAV:  cpu time      3.6963: real time      3.7109
       DOS:  cpu time      0.0045: real time      0.0045
    CHARGE:  cpu time      0.0860: real time      0.0862
    MIXING:  cpu time      0.0003: real time      0.0003
    --------------------------------------------
      LOOP:  cpu time      3.7933: real time      3.8084

 eigenvalue-minimisations  : 20764
 total energy-change (2. order) : 0.5609639E-02  (-0.1286455E-01)
 number of electron     205.9999769 magnetization 
 augmentation part       43.7050828 magnetization 

 Broyden mixing:
  rms(total) = 0.54274E-01    rms(broyden)= 0.54199E-01
  rms(prec ) = 0.11908E+00
  weight for this iteration     100.00

 eigenvalues of (default mixing * dielectric matrix)
  average eigenvalue GAMMA=   1.0500
  2.4345  1.7164  0.8817  0.4633  0.4633  0.3408

 Free energy of the ion-electron system (eV)
  ---------------------------------------------------
  alpha Z        PSCENC =      1820.73498954
  Ewald energy   TEWEN  =    -21201.38111430
  -Hartree energ DENC   =     -3683.05956987
  -exchange      EXHF   =         0.00000000
  -V(xc)+E(xc)   XCENC  =       783.86799923
  PAW double counting   =     26535.67352908   -26282.56324163
  entropy T*S    EENTRO =        -0.00146000
  eigenvalues    EBANDS =     -2960.13737784
  atomic energy  EATOM  =     24804.82090209
  Solvation  Ediel_sol  =         0.00000000
  ---------------------------------------------------
  free energy    TOTEN  =      -182.04534370 eV

  energy without entropy =     -182.04388370  energy(sigma->0) =     -182.04461370


--------------------------------------------------------------------------------------------------------




--------------------------------------- Iteration      1(  12)  ---------------------------------------


    POTLOK:  cpu time      0.0046: real time      0.0047
    SETDIJ:  cpu time      0.0017: real time      0.0018
     EDDAV:  cpu time      3.8032: real time      3.8183
       DOS:  cpu time      0.0042: real time      0.0042
    CHARGE:  cpu time      0.0838: real time      0.0841
    MIXING:  cpu time      0.0003: real time      0.0003
    --------------------------------------------
[...]
     25     -25.7544      2.00000
     26     -25.7338      2.00000
     27     -25.7118      2.00000
     28     -25.6880      2.00000
     29     -25.6737      2.00000
     30     -25.6535      2.00000
     31     -25.6290      2.00000
     32     -25.6025      2.00000
     33     -25.5086      2.00000
     34     -25.4564      2.00000
     35     -25.4380      2.00000
     36     -25.1765      2.00000
     37     -25.1190      2.00000
     38     -25.0399      2.00000
     39     -25.0114      2.00000
     40     -24.9193      2.00000
     41     -24.8723      2.00000
     42     -24.8369      2.00000
     43     -24.8176      2.00000
     44     -24.7953      2.00000
     45     -24.7784      2.00000
     46     -24.7545      2.00000
     47     -24.6968      2.00000
     48     -24.6491      2.00000
     49     -24.5618      2.00000
     50     -24.5344      2.00000
     51     -21.7450      2.00000
     52     -21.6565      2.00000
     53     -21.5135      2.00000
     54     -21.4704      2.00000
     55     -21.4471      2.00000
     56     -21.4192      2.00000
     57     -21.3951      2.00000
     58     -21.2762      2.00000
     59     -21.1967      2.00000
     60       3.7120      2.00000
     61       4.2308      2.00000
     62       4.5499      2.00000
     63       4.7112      2.00000
     64       4.8845      2.00000
     65       5.1922      2.00000
     66       5.4671      2.00000
     67       5.9164      2.00000
     68       6.1912      2.00000
     69       6.2535      2.00000
     70       6.2908      2.00000
     71       6.3298      2.00000
     72       6.3893      2.00000
     73       6.4273      2.00000
     74       6.4607      2.00000
     75       6.4720      2.00000
     76       6.5893      2.00000
     77       6.6339      2.00000
     78       6.6804      2.00000
     79       6.7108      2.00000
     80       6.9804      2.00000
     81       7.0274      2.00000
     82       7.0536      2.00000
     83       7.1368      2.00000
     84       7.1616      2.00000
     85       7.1729      2.00000
     86       7.1980      2.00000
     87       7.2429      2.00000
     88       7.2791      2.00000
     89       7.3002      2.00000
     90       7.3208      2.00000
     91       7.3787      2.00000
     92       7.3888      2.00000
     93       7.4114      2.00000
     94       7.4358      2.00000
     95       7.5230      2.00000
     96       7.5437      2.00000
     97       7.5706      2.00000
     98       7.5794      2.00000
     99       7.6160      2.00000
    100       7.6649      2.00000
    101       7.7527      2.00000
    102       7.8355      2.00000
    103       7.8633      2.00000
    104       7.9011      2.00000
    105       7.9087      2.00000
    106       7.9580      2.00000
    107       8.3291      2.00000
    108      10.8300      0.00000
    109      10.8997      0.00000
    110      10.9070      0.00000
    111      11.0194      0.00000
    112      11.0403      0.00000
    113      11.0764      0.00000
    114      11.1841      0.00000
    115      11.2503      0.00000
    116      11.2735      0.00000
    117      11.4752      0.00000
    118      11.5711      0.00000
    119      11.5824      0.00000
    120      11.6466      0.00000
    121      11.6669      0.00000
    122      11.7090      0.00000
    123      11.8203      0.00000
    124      11.9141      0.00000

 k-point    63 :       0.4000   -0.4000    0.4000
  band No.  band energies     occupation 
      1     -64.6860      2.00000
      2     -64.6572      2.00000
      3     -51.6645      2.00000
      4     -51.6356      2.00000
      5     -51.6018      2.00000
      6     -51.5596      2.00000
      7     -51.5459      2.00000
      8     -51.5177      2.00000
      9     -45.4234      2.00000
     10     -45.3606      2.00000
     11     -45.3071      2.00000
     12     -28.9155      2.00000
     13     -28.8975      2.00000
     14     -28.8895      2.00000
     15     -28.8812      2.00000
     16     -28.8661      2.00000
     17     -28.8504      2.00000
     18     -26.0399      2.00000
     19     -25.9638      2.00000
     20     -25.9029      2.00000
     21     -25.8293      2.00000
     22     -25.8032      2.00000
     23     -25.7827      2.00000
     24     -25.7665      2.00000
     25     -25.7489      2.00000
     26     -25.7340      2.00000
     27     -25.7145      2.00000
     28     -25.6891      2.00000
     29     -25.6777      2.00000
     30     -25.6648      2.00000
     31     -25.6358      2.00000
     32     -25.6278      2.00000
     33     -25.5361      2.00000
     34     -25.4403      2.00000
     35     -25.4172      2.00000
     36     -25.1923      2.00000
     37     -25.1246      2.00000
     38     -25.0395      2.00000
     39     -25.0101      2.00000
     40     -24.9073      2.00000
     41     -24.8689      2.00000
     42     -24.8245      2.00000
     43     -24.8095      2.00000
     44     -24.7954      2.00000
     45     -24.7816      2.00000
     46     -24.7514      2.00000
     47     -24.6981      2.00000
     48     -24.6515      2.00000
     49     -24.5700      2.00000
     50     -24.5410      2.00000
     51     -21.7426      2.00000
     52     -21.6576      2.00000
     53     -21.5132      2.00000
     54     -21.4706      2.00000
     55     -21.4469      2.00000
     56     -21.4195      2.00000
     57     -21.3953      2.00000
     58     -21.2783      2.00000
     59     -21.1951      2.00000
     60       3.7213      2.00000
     61       4.2205      2.00000
     62       4.4758      2.00000
     63       4.7998      2.00000
     64       4.9080      2.00000
     65       5.2086      2.00000
     66       5.3951      2.00000
     67       5.9193      2.00000
     68       6.2067      2.00000
     69       6.2189      2.00000
     70       6.2734      2.00000
     71       6.3331      2.00000
     72       6.4212      2.00000
     73       6.4394      2.00000
     74       6.4406      2.00000
     75       6.4985      2.00000
     76       6.5908      2.00000
     77       6.6301      2.00000
     78       6.6823      2.00000
     79       6.6932      2.00000
     80       6.9776      2.00000
     81       7.0209      2.00000
     82       7.0668      2.00000
     83       7.1341      2.00000
     84       7.1532      2.00000
     85       7.1704      2.00000
     86       7.2458      2.00000
     87       7.2543      2.00000
     88       7.2913      2.00000
     89       7.2987      2.00000
     90       7.3103      2.00000
     91       7.3888      2.00000
     92       7.4091      2.00000
     93       7.4184      2.00000
     94       7.4547      2.00000
     95       7.5079      2.00000
     96       7.5293      2.00000
     97       7.5457      2.00000
     98       7.5818      2.00000
     99       7.6184      2.00000
    100       7.6409      2.00000
    101       7.7329      2.00000
    102       7.8345      2.00000
    103       7.8667      2.00000
    104       7.8740      2.00000
    105       7.9111      2.00000
    106       7.9888      2.00000
    107       8.3189      2.00000
    108      10.7634      0.00000
    109      10.7743      0.00000
    110      10.9432      0.00000
    111      11.0111      0.00000
    112      11.1606      0.00000
    113      11.1753      0.00000
    114      11.1848      0.00000
    115      11.3084      0.00000
    116      11.3220      0.00000
    117      11.4083      0.00000
    118      11.4881      0.00000
    119      11.5481      0.00000
    120      11.6623      0.00000
    121      11.6826      0.00000
    122      11.7770      0.00000
    123      11.8826      0.00000
    124      11.9973      0.00000


--------------------------------------------------------------------------------------------------------


 soft charge-density along one line, spin component           1
         0         1         2         3         4         5         6         7         8         9
 total charge-density along one line
 
 pseudopotential strength for first ion, spin component:           1
  5.805 -20.524  -0.000   0.000  -0.000   0.001  -0.001   0.001
-20.524   9.418  -0.000   0.000  -0.001   0.000  -0.000   0.000
 -0.000  -0.000  -9.904  -0.005   0.001   6.181   0.005  -0.002
  0.000   0.000  -0.005  -9.904   0.003   0.005   6.181  -0.003
 -0.000  -0.001   0.001   0.003  -9.907  -0.002  -0.003   6.184
  0.001   0.000   6.181   0.005  -0.002   7.827  -0.004   0.001
 -0.001  -0.000   0.005   6.181  -0.003  -0.004   7.827   0.002
  0.001   0.000  -0.002  -0.003   6.184   0.001   0.002   7.825
  0.001   0.000  -0.000   0.000  -0.000   0.000   0.000   0.000
 -0.003  -0.001   0.000  -0.000   0.000  -0.000   0.000   0.000
  0.000   0.000   0.000   0.000   0.000  -0.000  -0.000  -0.000
  0.002   0.001   0.000  -0.000   0.000   0.000   0.000  -0.000
 -0.001  -0.000   0.000  -0.000  -0.000  -0.000   0.000   0.000
  0.001   0.001  -0.000  -0.000  -0.000   0.000   0.000   0.000
 -0.004  -0.002   0.000  -0.000  -0.000  -0.000   0.000   0.000
  0.000   0.000   0.000   0.000   0.000  -0.000  -0.000  -0.000
  0.002   0.001  -0.000  -0.000   0.000   0.000   0.000  -0.000
 -0.002  -0.000   0.000  -0.000  -0.000  -0.000   0.000   0.000
 total augmentation occupancy for first ion, spin component:           1
  1.995  -0.047  -0.000   0.000  -0.000  -0.000   0.000  -0.000   0.002  -0.016   0.001   0.003  -0.001  -0.002   0.013  -0.001
 -0.047   1.318  -0.000   0.000  -0.000   0.000  -0.000   0.000   0.006  -0.034  -0.016   0.028  -0.020  -0.003   0.007   0.007
 -0.000  -0.000   1.996   0.000  -0.000  -0.031  -0.002  -0.000  -0.002   0.002   0.001   0.000   0.001   0.001  -0.001  -0.000
  0.000   0.000   0.000   1.996   0.000  -0.002  -0.030  -0.000   0.000  -0.002   0.001  -0.002  -0.000  -0.000   0.001  -0.001
 -0.000  -0.000  -0.000   0.000   1.996  -0.000  -0.000  -0.030  -0.001   0.000   0.001   0.002  -0.001   0.001  -0.000  -0.000
 -0.000   0.000  -0.031  -0.002  -0.000   0.070   0.003   0.001   0.005  -0.005  -0.000  -0.003  -0.001  -0.003   0.003   0.000
  0.000  -0.000  -0.002  -0.030  -0.000   0.003   0.067   0.001  -0.003   0.004  -0.001   0.004   0.000   0.002  -0.003   0.000
 -0.000   0.000  -0.000  -0.000  -0.030   0.001   0.001   0.067   0.004  -0.002  -0.000  -0.004   0.001  -0.003   0.002   0.000
  0.002   0.006  -0.002   0.000  -0.001   0.005  -0.003   0.004   3.353   0.110  -0.016  -0.020  -0.001  -1.421  -0.059   0.009
 -0.016  -0.034   0.002  -0.002   0.000  -0.005   0.004  -0.002   0.110   3.415  -0.056   0.023   0.103  -0.059  -1.443   0.024
  0.001  -0.016   0.001   0.001   0.001  -0.000  -0.001  -0.000  -0.016  -0.056   2.630   0.012   0.016   0.009   0.023  -1.192
  0.003   0.028   0.000  -0.002   0.002  -0.003   0.004  -0.004  -0.020   0.023   0.012   3.379   0.022  -0.009  -0.010  -0.006
 -0.001  -0.020   0.001  -0.000  -0.001  -0.001   0.000   0.001  -0.001   0.103   0.016   0.022   2.653  -0.000  -0.044  -0.009
 -0.002  -0.003   0.001  -0.000   0.001  -0.003   0.002  -0.003  -1.421  -0.059   0.009  -0.009  -0.000   0.614   0.031  -0.005
  0.013   0.007  -0.001   0.001  -0.000   0.003  -0.003   0.002  -0.059  -1.443   0.023  -0.010  -0.044   0.031   0.622  -0.010
 -0.001   0.007  -0.000  -0.001  -0.000   0.000   0.000   0.000   0.009   0.024  -1.192  -0.006  -0.009  -0.005  -0.010   0.547
 -0.003  -0.021  -0.000   0.001  -0.001   0.002  -0.003   0.003  -0.010  -0.010  -0.006  -1.424  -0.011   0.011   0.004   0.003
  0.001   0.009  -0.001   0.000   0.001   0.000  -0.000  -0.000  -0.000  -0.045  -0.009  -0.012  -1.202   0.000   0.019   0.006


------------------------ aborting loop because EDIFF is reached ----------------------------------------


    CHARGE:  cpu time      0.0863: real time      0.0867
    FORLOC:  cpu time      0.0005: real time      0.0005
    FORNL :  cpu time      0.7963: real time      0.7990
    STRESS:  cpu time      1.0035: real time      1.0068
    FORCOR:  cpu time      0.0066: real time      0.0066
    FORHAR:  cpu time      0.0015: real time      0.0016
    MIXING:  cpu time      0.0006: real time      0.0006
    OFIELD:  cpu time      0.0000: real time      0.0000

  FORCE on cell =-STRESS in cart. coord.  units (eV):
  Direction    XX          YY          ZZ          XY          YZ          ZX
  --------------------------------------------------------------------------------------
  Alpha Z  1820.73499  1820.73499  1820.73499
  Ewald   -7067.05859 -7084.23768 -7050.15213    12.64610     0.00000     4.21537
  Hartree  1226.11625  1212.54383  1244.98715    10.41173    -0.06463     4.89268
  E(xc)    -944.59268  -944.55613  -944.56794     0.00715    -0.00136    -0.02896
  Local    1625.60486  1654.56981  1588.25283   -22.84896     0.15184    -8.63326
  n-local  -442.69750  -442.43293  -441.30044     0.43342    -0.02267     0.03980
  augment   500.48925   500.67427   500.54332    -0.09828    -0.00729    -0.08364
  Kinetic  3255.65562  3256.61108  3255.39236    -0.63505    -0.04625    -0.02981
  Fock        0.00000     0.00000     0.00000     0.00000     0.00000     0.00000
  -------------------------------------------------------------------------------------
  Total     -25.74780   -26.09275   -26.10985    -0.08389     0.00964     0.37217
  in kB    -144.80148  -146.74144  -146.83760    -0.47180     0.05420     2.09304
  external pressure =     -146.13 kB  Pullay stress =        0.00 kB


 VOLUME and BASIS-vectors are now :
 -----------------------------------------------------------------------------
  energy-cutoff  :      250.00
  volume of cell :      284.89
      direct lattice vectors                 reciprocal lattice vectors
     6.580000000  0.000000000  0.000000000     0.151975684  0.000000000  0.000000000
     0.000000000  6.580000000  0.000000000     0.000000000  0.151975684  0.000000000
     0.000000000  0.000000000  6.580000000     0.000000000  0.000000000  0.151975684

  length of vectors
     6.580000000  6.580000000  6.580000000     0.151975684  0.151975684  0.151975684


 FORCES acting on ions
    electron-ion (+dipol)            ewald-force                    non-local-force                 convergence-correction
 -----------------------------------------------------------------------------------------------
   -.204E+02 -.204E+02 0.204E+02   0.204E+02 0.204E+02 -.204E+02   -.371E-01 -.481E-01 0.477E-01   0.191E-03 0.692E-04 0.205E-04
   0.204E+02 -.204E+02 -.204E+02   -.204E+02 0.204E+02 0.204E+02   0.385E-01 -.536E-01 -.600E-01   -.200E-03 0.802E-04 -.221E-04
   -.616E+02 0.408E+02 -.223E-02   0.612E+02 -.408E+02 -.791E-13   -.876E-01 0.949E-01 0.129E-01   -.512E-03 0.410E-03 -.258E-03
   -.219E+02 -.219E+02 -.219E+02   0.220E+02 0.220E+02 0.220E+02   -.207E-01 -.264E-01 -.263E-01   0.201E-03 0.744E-04 -.239E-04
   0.220E+02 -.219E+02 0.219E+02   -.220E+02 0.220E+02 -.220E+02   0.192E-01 -.269E-01 0.438E-01   -.223E-03 0.968E-04 0.210E-04
   -.661E+02 -.439E+02 -.687E-02   0.659E+02 0.439E+02 -.117E-12   -.531E-01 -.576E-01 0.193E-01   -.438E-03 -.446E-03 -.283E-03
   0.219E+02 0.219E+02 -.219E+02   -.220E+02 -.220E+02 0.220E+02   0.226E-01 0.332E-01 -.322E-01   -.206E-03 -.753E-04 -.209E-04
   0.661E+02 0.439E+02 0.845E-02   -.659E+02 -.439E+02 -.344E-15   0.655E-01 0.570E-01 -.211E-01   0.448E-03 0.475E-03 0.273E-03
   0.219E+02 0.219E+02 0.219E+02   -.220E+02 -.220E+02 -.220E+02   0.236E-01 0.260E-01 0.290E-01   -.199E-03 -.876E-04 0.253E-04
   0.523E+02 0.345E+02 -.402E-01   -.518E+02 -.345E+02 -.128E-14   0.526E-01 0.880E-01 0.395E-01   0.437E-03 0.372E-03 -.218E-03
   -.173E+02 0.173E+02 0.172E+02   0.173E+02 -.173E+02 -.173E+02   -.244E-01 0.161E-01 0.303E-01   0.149E-03 -.653E-04 0.281E-04
   -.523E+02 -.345E+02 0.351E-01   0.518E+02 0.345E+02 0.719E-13   -.459E-01 -.770E-01 -.336E-01   -.447E-03 -.377E-03 0.225E-03
   0.523E+02 -.345E+02 0.404E-01   -.518E+02 0.345E+02 0.185E-13   0.456E-01 -.729E-01 -.493E-01   0.440E-03 -.379E-03 0.218E-03
   -.173E+02 0.173E+02 -.173E+02   0.173E+02 -.173E+02 0.173E+02   -.136E-01 0.148E-01 -.249E-01   0.148E-03 -.493E-04 -.373E-04
   -.663E+02 0.439E+02 0.919E-02   0.659E+02 -.439E+02 0.303E-13   -.230E-01 0.582E-02 -.229E-01   -.444E-03 0.456E-03 0.262E-03
   0.662E+02 -.439E+02 -.875E-02   -.659E+02 0.439E+02 0.141E-12   0.369E-01 -.519E-02 0.200E-01   0.442E-03 -.470E-03 -.272E-03
 -----------------------------------------------------------------------------------------------
   0.102E-02 0.318E-01 0.278E-01   0.284E-13 0.426E-13 0.219E-13   -.810E-03 -.318E-01 -.278E-01   -.212E-03 0.847E-04 -.636E-04
 
 
 POSITION                                       TOTAL-FORCE (eV/Angst)
 -----------------------------------------------------------------------------------
      4.93500      1.64500      4.93500        -0.055224     -0.047184      0.057515
      1.64500      1.64500      1.64500         0.073436     -0.065785     -0.068281
      3.29000      0.00000      0.00000        -0.515307      0.135179      0.010394
      4.93500      1.64500      1.64500         0.012046      0.012817      0.010667
      1.64500      1.64500      4.93500         0.007198      0.000076     -0.002416
      3.29000      3.29000      0.00000        -0.284509     -0.015682      0.012132
      1.64500      4.93500      1.64500         0.005868     -0.004321     -0.002552
      0.00000      0.00000      3.29000         0.268399      0.009675     -0.012385
      1.64500      4.93500      4.93500         0.003117      0.001826      0.003993
      0.00000      0.00000      0.00000         0.574653      0.087292     -0.000897
      4.93500      4.93500      4.93500        -0.037897      0.022724      0.021637
      3.29000      3.29000      3.29000        -0.553455     -0.084795      0.001661
      0.00000      3.29000      3.29000         0.544189     -0.086079     -0.008637
      4.93500      4.93500      1.64500        -0.030840      0.031961     -0.020371
      3.29000      0.00000      3.29000        -0.391627      0.003807     -0.013481
      0.00000      3.29000      0.00000         0.379953     -0.001509      0.011020
 -----------------------------------------------------------------------------------
    total drift:                               -0.000002      0.000030      0.000005


--------------------------------------------------------------------------------------------------------



  FREE ENERGIE OF THE ION-ELECTRON SYSTEM (eV)
  ---------------------------------------------------
  free  energy   TOTEN  =      -182.03955158 eV

  energy  without entropy=     -182.03788435  energy(sigma->0) =     -182.03871796
 


--------------------------------------------------------------------------------------------------------


    POTLOK:  cpu time      0.0061: real time      0.0062


--------------------------------------------------------------------------------------------------------


     LOOP+:  cpu time     86.7931: real time     87.7512
    4ORBIT:  cpu time      0.0000: real time      0.0000

 total amount of memory used by VASP MPI-rank0    47987. kBytes
=======================================================================

   base      :      30000. kBytes
   nonl-proj :       8332. kBytes
   fftplans  :        456. kBytes
   grid      :        919. kBytes
   one-center:         31. kBytes
   wavefun   :       8249. kBytes
 
  
  
 General timing and accounting informations for this job:
 ========================================================
  
                  Total CPU time used (sec):       90.182
                            User time (sec):       88.984
                          System time (sec):        1.198
                         Elapsed time (sec):       92.662
  
                   Maximum memory used (kb):       90116.
                   Average memory used (kb):          N/A
  
                          Minor page faults:         8605
                          Major page faults:            0
                 Voluntary context switches:          253
