 vasp.6.3.1 04May22 (build Jul 26 2022 04:02:40) complex                        
  
 executed on             LinuxIFC date 2023.11.30  23:32:57
 running on   48 total cores
 distrk:  each k-point on   48 cores,    1 groups
 distr:  one band on NCORE=  12 cores,    4 groups


--------------------------------------------------------------------------------------------------------


 INCAR:
   ISTART = 0
   NWRITE = 2
   PREC = Accurate
   ENCUT = 250
   GGA = PE
   NSW = 0
   ISIF = 2
   ISYM = 2
   NBLOCK = 1
   KBLOCK = 1
   IBRION = -1
   NELM = 80
   EDIFF = 1E-08
   EDIFFG = -0.01
   ALGO = Normal
   LDIAG = .TRUE.
   LREAL = .FALSE.
   ISMEAR = 0
   SIGMA = 0.02
   ICHARG = 2
   LPLANE = .TRUE.
   NPAR = 4
   LSCALU = .FALSE.
   NSIM = 4
   LWAVE = .FALSE.
   LCHARG = .FALSE.
   ICORELEVEL = 1

 POTCAR:    PAW_PBE Nb_sv 25May2007               
 POTCAR:    PAW_PBE Mo_sv 02Feb2006               
 POTCAR:    PAW_PBE Ta_pv 07Sep2000               
 POTCAR:    PAW_PBE W_sv 04Sep2015                
 POTCAR:    PAW_PBE Nb_sv 25May2007               
   SHA256 =  0e8fc07c9fcd1164cf2ade22d0399fd28f85e91cd773dfa6cf24839a48c95e24 Nb_sv/POTCAR          
   COPYR  = (c) Copyright 25May2007 Georg Kresse                                                    
   COPYR  = This file is part of the software VASP. Any use, copying, and all other rights are regul
   COPYR  = If you do not have a valid VASP license, you may not use, copy or distribute this file. 
   VRHFIN =Nb: 4p5s4d                                                                               
   LEXCH  = PE                                                                                      
   EATOM  =  1555.1913 eV,  114.3033 Ry                                                             
                                                                                                    
   TITEL  = PAW_PBE Nb_sv 25May2007                                                                 
   LULTRA =        F    use ultrasoft PP ?                                                          
   IUNSCR =        1    unscreen: 0-lin 1-nonlin 2-no                                               
   RPACOR =    1.800    partial core radius                                                         
   POMASS =   92.910; ZVAL   =   13.000    mass and valenz                                          
   RCORE  =    2.400    outmost cutoff radius                                                       
   RWIGS  =    2.400; RWIGS  =    1.270    wigner-seitz radius (au A)                               
   ENMAX  =  293.235; ENMIN  =  219.927 eV                                                          
   ICORE  =        3    local potential                                                             
   LCOR   =        T    correct aug charges                                                         
   LPAW   =        T    paw PP                                                                      
   EAUG   =  455.659                                                                                
   DEXC   =    0.000                                                                                
   RMAX   =    2.456    core radius for proj-oper                                                   
   RAUG   =    1.300    factor for augmentation sphere                                              
   RDEP   =    2.451    radius for radial grids                                                     
   RDEPT  =    1.956    core radius for aug-charge                                                  
                                                                                                    
   Atomic configuration                                                                             
   11 entries                                                                                       
     n  l   j            E        occ.                                                              
     1  0  0.50    -18805.2457   2.0000                                                             
     2  0  0.50     -2630.2869   2.0000                                                             
     2  1  1.50     -2348.4046   6.0000                                                             
     3  0  0.50      -438.8757   2.0000                                                             
     3  1  1.50      -346.7588   6.0000                                                             
     3  2  2.50      -196.2560  10.0000                                                             
     4  0  0.50       -58.3859   2.0000                                                             
     5  0  0.50        -3.9816   1.0000                                                             
     4  1  1.50       -34.5141   6.0000                                                             
     4  2  2.50        -3.0408   4.0000                                                             
     4  3  2.50        -1.3606   0.0000                                                             
   Description                                                                                      
     l       E           TYP  RCUT    TYP  RCUT                                                     
     0    -58.3859094     23  2.200                                                                 
     0     -3.9816262     23  2.200                                                                 
     1    -34.5140738     23  2.200                                                                 
     1     13.6058260     23  2.200                                                                 
     2     -3.0408010     23  2.200                                                                 
     2     -0.1283038     23  2.200                                                                 
     3     -1.3605826     23  2.400                                                                 
  local pseudopotential read in
  partial core-charges read in
  partial kinetic energy density read in
  atomic valenz-charges read in
  non local Contribution for L=           0  read in
    real space projection operators read in
  non local Contribution for L=           0  read in
    real space projection operators read in
  non local Contribution for L=           1  read in
    real space projection operators read in
  non local Contribution for L=           1  read in
    real space projection operators read in
  non local Contribution for L=           2  read in
    real space projection operators read in
  non local Contribution for L=           2  read in
    real space projection operators read in
    PAW grid and wavefunctions read in
 
   number of l-projection  operators is LMAX  =           6
   number of lm-projection operators is LMMAX =          18
 
 POTCAR:    PAW_PBE Mo_sv 02Feb2006               
   SHA256 =  2731df97e41766cc617548c5a8267718fdef1f509ac6bafa01e745abea2bdfaa Mo_sv/POTCAR          
   COPYR  = (c) Copyright 02Feb2006 Georg Kresse                                                    
   COPYR  = This file is part of the software VASP. Any use, copying, and all other rights are regul
   COPYR  = If you do not have a valid VASP license, you may not use, copy or distribute this file. 
   VRHFIN =Mo: 4p5s4d                                                                               
   LEXCH  = PE                                                                                      
   EATOM  =  1862.2866 eV,  136.8742 Ry                                                             
                                                                                                    
   TITEL  = PAW_PBE Mo_sv 02Feb2006                                                                 
   LULTRA =        F    use ultrasoft PP ?                                                          
   IUNSCR =        1    unscreen: 0-lin 1-nonlin 2-no                                               
   RPACOR =    2.200    partial core radius                                                         
   POMASS =   95.940; ZVAL   =   14.000    mass and valenz                                          
   RCORE  =    2.500    outmost cutoff radius                                                       
   RWIGS  =    2.750; RWIGS  =    1.455    wigner-seitz radius (au A)                               
   ENMAX  =  242.676; ENMIN  =  182.007 eV                                                          
   ICORE  =        3    local potential                                                             
   LCOR   =        T    correct aug charges                                                         
   LPAW   =        T    paw PP                                                                      
   EAUG   =  446.014                                                                                
   DEXC   =    0.000                                                                                
   RMAX   =    2.563    core radius for proj-oper                                                   
   RAUG   =    1.300    factor for augmentation sphere                                              
   RDEP   =    2.641    radius for radial grids                                                     
   RDEPT  =    2.031    core radius for aug-charge                                                  
                                                                                                    
   Atomic configuration                                                                             
   11 entries                                                                                       
     n  l   j            E        occ.                                                              
     1  0  0.50    -19819.0341   2.0000                                                             
     2  0  0.50     -2799.0127   2.0000                                                             
     2  1  1.50     -2502.0276   6.0000                                                             
     3  0  0.50      -476.4449   2.0000                                                             
     3  1  1.50      -379.1496   6.0000                                                             
     3  2  2.50      -220.9367  10.0000                                                             
     4  0  0.50       -64.3378   2.0000                                                             
     5  0  0.50        -4.0862   1.0000                                                             
     4  1  1.50       -38.4773   6.0000                                                             
     4  2  2.50        -3.7535   5.0000                                                             
     4  3  2.50        -1.3606   0.0000                                                             
   Description                                                                                      
     l       E           TYP  RCUT    TYP  RCUT                                                     
     0    -64.3377829     23  2.100                                                                 
     0     -4.0861640     23  2.400                                                                 
     1    -38.4772993     23  2.100                                                                 
     1     13.6058260     23  2.100                                                                 
     2     -3.7534941     23  2.400                                                                 
     2     -5.1140767     23  2.400                                                                 
     3     -4.0817478     23  2.500                                                                 
  local pseudopotential read in
  partial core-charges read in
  partial kinetic energy density read in
  atomic valenz-charges read in
  non local Contribution for L=           0  read in
    real space projection operators read in
  non local Contribution for L=           0  read in
    real space projection operators read in
  non local Contribution for L=           1  read in
    real space projection operators read in
  non local Contribution for L=           1  read in
    real space projection operators read in
  non local Contribution for L=           2  read in
    real space projection operators read in
  non local Contribution for L=           2  read in
    real space projection operators read in
    PAW grid and wavefunctions read in
 
   number of l-projection  operators is LMAX  =           6
   number of lm-projection operators is LMMAX =          18
 
 POTCAR:    PAW_PBE Ta_pv 07Sep2000               
   SHA256 =  00d0a14a36c127416459414afb8617d9754996fffa60a2465888e660b20a452f Ta_pv/POTCAR          
   COPYR  = (c) Copyright 07Sep2000 Georg Kresse                                                    
   COPYR  = This file is part of the software VASP. Any use, copying, and all other rights are regul
   COPYR  = If you do not have a valid VASP license, you may not use, copy or distribute this file. 
   VRHFIN =Ta:  5p6s5d                                                                              
   LEXCH  = PE                                                                                      
   EATOM  =  1047.1984 eV,   76.9669 Ry                                                             
                                                                                                    
   TITEL  = PAW_PBE Ta_pv 07Sep2000                                                                 
   LULTRA =        F    use ultrasoft PP ?                                                          
   IUNSCR =        1    unscreen: 0-lin 1-nonlin 2-no                                               
   RPACOR =    2.330    partial core radius                                                         
   POMASS =  180.948; ZVAL   =   11.000    mass and valenz                                          
   RCORE  =    2.500    outmost cutoff radius                                                       
   RWIGS  =    2.840; RWIGS  =    1.503    wigner-seitz radius (au A)                               
   ENMAX  =  223.667; ENMIN  =  167.750 eV                                                          
   RCLOC  =    2.205    cutoff for local pot                                                        
   LCOR   =        T    correct aug charges                                                         
   LPAW   =        T    paw PP                                                                      
   EAUG   =  377.421                                                                                
   DEXC   =    0.000                                                                                
   RMAX   =    2.551    core radius for proj-oper                                                   
   RAUG   =    1.300    factor for augmentation sphere                                              
   RDEP   =    2.526    radius for radial grids                                                     
   RDEPT  =    2.132    core radius for aug-charge                                                  
                                                                                                    
   Atomic configuration                                                                             
   15 entries                                                                                       
     n  l   j            E        occ.                                                              
     1  0  0.50    -67341.2801   2.0000                                                             
     2  0  0.50    -11566.9369   2.0000                                                             
     2  1  1.50    -10134.1175   6.0000                                                             
     3  0  0.50     -2648.5614   2.0000                                                             
     3  1  1.50     -2222.6006   6.0000                                                             
     3  2  2.50     -1726.3114  10.0000                                                             
     4  0  0.50      -538.6957   2.0000                                                             
     4  1  1.50      -399.0125   6.0000                                                             
     4  2  2.50      -220.3955  10.0000                                                             
     4  3  3.50       -23.0371  14.0000                                                             
     5  0  0.50       -71.2900   2.0000                                                             
     5  1  1.50       -37.8224   6.0000                                                             
     5  2  2.50        -2.6455   4.0000                                                             
     6  0  0.50        -4.9623   1.0000                                                             
     5  3  2.50        -1.3606   0.0000                                                             
   Description                                                                                      
     l       E           TYP  RCUT    TYP  RCUT                                                     
     1    -37.8224449     23  2.500                                                                 
     1      1.3605826     23  2.500                                                                 
     2     -2.6454718     23  2.500                                                                 
     2     -0.6258570     23  2.500                                                                 
     0     -4.9622674     23  2.500                                                                 
     0      4.7531427     23  2.500                                                                 
  local pseudopotential read in
  partial core-charges read in
  partial kinetic energy density read in
  atomic valenz-charges read in
  non local Contribution for L=           1  read in
    real space projection operators read in
  non local Contribution for L=           1  read in
    real space projection operators read in
  non local Contribution for L=           2  read in
    real space projection operators read in
  non local Contribution for L=           2  read in
    real space projection operators read in
  non local Contribution for L=           0  read in
    real space projection operators read in
  non local Contribution for L=           0  read in
    real space projection operators read in
    PAW grid and wavefunctions read in
 
   number of l-projection  operators is LMAX  =           6
   number of lm-projection operators is LMMAX =          18
 
 POTCAR:    PAW_PBE W_sv 04Sep2015                
   SHA256 =  931c2d770f65867ef30f3db3421922900fc0890ebac5c3e12f63b6a2064023d7 W_sv/POTCAR           
   COPYR  = (c) Copyright 04Sep2015 Georg Kresse                                                    
   COPYR  = This file is part of the software VASP. Any use, copying, and all other rights are regul
   COPYR  = If you do not have a valid VASP license, you may not use, copy or distribute this file. 
   VRHFIN =W : 5p6s5d                                                                               
   LEXCH  = PE                                                                                      
   EATOM  =  1865.5791 eV,  137.1162 Ry                                                             
                                                                                                    
   TITEL  = PAW_PBE W_sv 04Sep2015                                                                  
   LULTRA =        F    use ultrasoft PP ?                                                          
   IUNSCR =        1    unscreen: 0-lin 1-nonlin 2-no                                               
   RPACOR =    2.330    partial core radius                                                         
   POMASS =  183.850; ZVAL   =   14.000    mass and valenz                                          
   RCORE  =    2.500    outmost cutoff radius                                                       
   RWIGS  =    2.750; RWIGS  =    1.455    wigner-seitz radius (au A)                               
   ENMAX  =  223.057; ENMIN  =  167.293 eV                                                          
   ICORE  =        3    local potential                                                             
   LCOR   =        T    correct aug charges                                                         
   LPAW   =        T    paw PP                                                                      
   EAUG   =  373.438                                                                                
   DEXC   =    0.000                                                                                
   RMAX   =    2.565    core radius for proj-oper                                                   
   RAUG   =    1.300    factor for augmentation sphere                                              
   RDEP   =    2.539    radius for radial grids                                                     
   RDEPT  =    2.126    core radius for aug-charge                                                  
                                                                                                    
   Atomic configuration                                                                             
   15 entries                                                                                       
     n  l   j            E        occ.                                                              
     1  0  0.50    -69465.5834   2.0000                                                             
     2  0  0.50    -11986.2640   2.0000                                                             
     2  1  1.50    -10479.8613   6.0000                                                             
     3  0  0.50     -2759.0756   2.0000                                                             
     3  1  1.50     -2313.1855   6.0000                                                             
     3  2  2.50     -1801.1183  10.0000                                                             
     4  0  0.50      -567.6789   2.0000                                                             
     4  1  1.50      -421.4692   6.0000                                                             
     4  2  2.50      -236.3471  10.0000                                                             
     4  3  3.50       -31.2665  14.0000                                                             
     5  0  0.50       -77.1084   2.0000                                                             
     6  0  0.50        -5.1438   1.0000                                                             
     5  1  1.50       -41.3856   6.0000                                                             
     5  2  2.50        -3.3185   5.0000                                                             
     5  3  2.50        -1.3606   0.0000                                                             
   Description                                                                                      
     l       E           TYP  RCUT    TYP  RCUT                                                     
     0    -77.1084470     23  2.100                                                                 
     0     -5.1437956     23  2.300                                                                 
     1    -41.3855615     23  2.500                                                                 
     1     -2.7211652     23  2.500                                                                 
     2     -3.3185025     23  2.500                                                                 
     2     -1.5965151     23  2.500                                                                 
     3     -1.3605826     23  2.500                                                                 
  local pseudopotential read in
  partial core-charges read in
  partial kinetic energy density read in
  kinetic energy density of atom read in
  atomic valenz-charges read in
  non local Contribution for L=           0  read in
    real space projection operators read in
  non local Contribution for L=           0  read in
    real space projection operators read in
  non local Contribution for L=           1  read in
    real space projection operators read in
  non local Contribution for L=           1  read in
    real space projection operators read in
  non local Contribution for L=           2  read in
    real space projection operators read in
  non local Contribution for L=           2  read in
    real space projection operators read in
    PAW grid and wavefunctions read in
 
   number of l-projection  operators is LMAX  =           6
   number of lm-projection operators is LMMAX =          18
 
 -----------------------------------------------------------------------------
|                                                                             |
|               ----> ADVICE to this user running VASP <----                  |
|                                                                             |
|     You have a (more or less) 'large supercell' and for larger cells it     |
|     might be more efficient to use real-space projection operators.         |
|     Therefore, try LREAL= Auto in the INCAR file.                           |
|     Mind: For very accurate calculation, you might also keep the            |
|     reciprocal projection scheme (i.e. LREAL=.FALSE.).                      |
|                                                                             |
 -----------------------------------------------------------------------------

  PAW_PBE Nb_sv 25May2007               :
 energy of atom  1       EATOM=-1555.1913
 kinetic energy error for atom=    0.2155 (will be added to EATOM!!)
  PAW_PBE Mo_sv 02Feb2006               :
 energy of atom  2       EATOM=-1862.2866
 kinetic energy error for atom=    0.1102 (will be added to EATOM!!)
  PAW_PBE Ta_pv 07Sep2000               :
 energy of atom  3       EATOM=-1047.1984
 kinetic energy error for atom=    0.0394 (will be added to EATOM!!)
  PAW_PBE W_sv 04Sep2015                :
 energy of atom  4       EATOM=-1865.5791
 kinetic energy error for atom=    0.0589 (will be added to EATOM!!)
 
 
 POSCAR: Nb-Mo-Ta-W alloy
  positions in direct lattice
  No initial velocities read in
 exchange correlation table for  LEXCH =        8
   RHO(1)=    0.500       N(1)  =     2000
   RHO(2)=  100.500       N(2)  =     4000
 


--------------------------------------------------------------------------------------------------------


 ion  position               nearest neighbor table
   1  0.625  0.875  0.750-   5 2.85  25 2.85  28 2.85  41 2.85  47 2.85  52 2.85  59 2.85  64 2.85
                            49 3.29  42 3.29  42 3.29
   2  0.125  0.625  0.750-  15 2.85  22 2.85  26 2.85  29 2.85  45 2.85  46 2.85  56 2.85  62 2.85

   3  0.750  0.250  0.000-   7 2.85   9 2.85  21 2.85  30 2.85  31 2.85  35 2.85  37 2.85  58 2.85
                            39 3.29
   4  0.125  0.375  0.250-  14 2.85  15 2.85  20 2.85  23 2.85  26 2.85  29 2.85  51 2.85  56 2.85
                            36 3.29
   5  0.500  0.750  0.000-   1 2.85   8 2.85  11 2.85  42 2.85  49 2.85  50 2.85  53 2.85  61 2.85
                            40 3.29  47 3.29
   6  0.000  0.000  0.500-  12 2.85  13 2.85  17 2.85  21 2.85  31 2.85  44 2.85  60 2.85  63 2.85
                            38 3.29  46 3.29
   7  0.625  0.375  0.250-   3 2.85  24 2.85  27 2.85  39 2.85  40 2.85  43 2.85  48 2.85  57 2.85
                            37 3.29  35 3.29  36 3.29  37 3.29
   8  0.375  0.625  0.750-   5 2.85  28 2.85  29 2.85  40 2.85  45 2.85  48 2.85  56 2.85  62 2.85
                            49 3.29
   9  0.625  0.125  0.750-   3 2.85  24 2.85  25 2.85  27 2.85  47 2.85  57 2.85  59 2.85  64 2.85
                            35 3.29  37 3.29  35 3.29
  10  0.375  0.125  0.250-  16 2.85  20 2.85  24 2.85  25 2.85  27 2.85  38 2.85  47 2.85  51 2.85
                            36 3.29  35 3.29
  11  0.375  0.625  0.250-   5 2.85  28 2.85  29 2.85  40 2.85  45 2.85  48 2.85  56 2.85  62 2.85
                            36 3.29
  12  0.125  0.125  0.250-   6 2.85  14 2.85  16 2.85  19 2.85  20 2.85  23 2.85  38 2.85  51 2.85
                            44 3.29  44 3.29
  13  0.875  0.875  0.750-   6 2.85  19 2.85  22 2.85  41 2.85  46 2.85  52 2.85  59 2.85  64 2.85

  14  0.000  0.250  0.500-   4 2.85  12 2.85  21 2.85  30 2.85  31 2.85  44 2.85  54 2.85  58 2.85

  15  0.000  0.500  0.000-   2 2.85   4 2.85  30 2.85  32 2.85  33 2.85  34 2.85  54 2.85  58 2.85
                            39 3.29
  16  0.250  0.000  0.000-  10 2.85  12 2.85  17 2.85  18 2.85  44 2.85  49 2.85  50 2.85  60 2.85
                            47 3.29  38 3.29  38 3.29
  17  0.125  0.875  0.750-   6 2.85  16 2.85  19 2.85  22 2.85  38 2.85  45 2.85  46 2.85  62 2.85
                            49 3.29  44 3.29
  18  0.375  0.125  0.750-  16 2.85  20 2.85  24 2.85  25 2.85  27 2.85  38 2.85  47 2.85  51 2.85
                            49 3.29  44 3.29
  19  0.000  0.000  0.000-  12 2.85  13 2.85  17 2.85  21 2.85  31 2.85  44 2.85  60 2.85  63 2.85

  20  0.250  0.250  0.500-   4 2.85  10 2.85  12 2.85  18 2.85  36 2.85  44 2.85  54 2.85  55 2.85
                            29 3.29  51 3.29  24 3.29  38 3.29  51 3.29
  21  0.875  0.125  0.250-   3 2.85   6 2.85  14 2.85  19 2.85  23 2.85  57 2.85  59 2.85  64 2.85
                            58 3.29  35 3.29  63 3.29  31 3.29  31 3.29
  22  0.000  0.750  0.000-   2 2.85  13 2.85  17 2.85  32 2.85  33 2.85  34 2.85  60 2.85  63 2.85
                            46 3.29  62 3.29  52 3.29  46 3.29
  23  0.000  0.250  0.000-   4 2.85  12 2.85  21 2.85  30 2.85  31 2.85  44 2.85  54 2.85  58 2.85
                            51 3.29
  24  0.500  0.250  0.500-   7 2.85   9 2.85  10 2.85  18 2.85  35 2.85  36 2.85  37 2.85  55 2.85
                            25 3.29  27 3.29  48 3.29  20 3.29  57 3.29  27 3.29
  25  0.500  0.000  0.500-   1 2.85   9 2.85  10 2.85  18 2.85  35 2.85  42 2.85  49 2.85  50 2.85
                            28 3.29  47 3.29  24 3.29  38 3.29  59 3.29  47 3.29
  26  0.000  0.500  0.500-   2 2.85   4 2.85  30 2.85  32 2.85  33 2.85  34 2.85  54 2.85  58 2.85
                            46 3.29  29 3.29  43 3.29
  27  0.500  0.250  0.000-   7 2.85   9 2.85  10 2.85  18 2.85  35 2.85  36 2.85  37 2.85  55 2.85
                            40 3.29  47 3.29  51 3.29  24 3.29  24 3.29
  28  0.500  0.750  0.500-   1 2.85   8 2.85  11 2.85  42 2.85  49 2.85  50 2.85  53 2.85  61 2.85
                            41 3.29  25 3.29  45 3.29  48 3.29
  29  0.250  0.500  0.500-   2 2.85   4 2.85   8 2.85  11 2.85  33 2.85  36 2.85  54 2.85  55 2.85
                            45 3.29  48 3.29  20 3.29  26 3.29  56 3.29  56 3.29
  30  0.875  0.375  0.750-   3 2.85  14 2.85  15 2.85  23 2.85  26 2.85  39 2.85  43 2.85  57 2.85
                            31 3.29  34 3.29  54 3.29  37 3.29  58 3.29  58 3.29
  31  0.875  0.125  0.750-   3 2.85   6 2.85  14 2.85  19 2.85  23 2.85  57 2.85  59 2.85  64 2.85
                            21 3.29  30 3.29  44 3.29  21 3.29
  32  0.875  0.625  0.250-  15 2.85  22 2.85  26 2.85  39 2.85  41 2.85  43 2.85  46 2.85  52 2.85
                            34 3.29  33 3.29  53 3.29  58 3.29  63 3.29  34 3.29
  33  0.125  0.625  0.250-  15 2.85  22 2.85  26 2.85  29 2.85  45 2.85  46 2.85  56 2.85  62 2.85
                            60 3.29  32 3.29
  34  0.875  0.625  0.750-  15 2.85  22 2.85  26 2.85  39 2.85  41 2.85  43 2.85  46 2.85  52 2.85
                            32 3.29  30 3.29  61 3.29  32 3.29
  35  0.625  0.125  0.250-   3 2.85  24 2.85  25 2.85  27 2.85  47 2.85  57 2.85  59 2.85  64 2.85
                            42 3.29  21 3.29   7 3.29   9 3.29  10 3.29   9 3.29
  36  0.375  0.375  0.250-  20 2.85  24 2.85  27 2.85  29 2.85  40 2.85  48 2.85  51 2.85  56 2.85
                             4 3.29   7 3.29  10 3.29  55 3.29  11 3.29  55 3.29
  37  0.625  0.375  0.750-   3 2.85  24 2.85  27 2.85  39 2.85  40 2.85  43 2.85  48 2.85  57 2.85
                            30 3.29   7 3.29  55 3.29   9 3.29  61 3.29   7 3.29
  38  0.250  0.000  0.500-  10 2.85  12 2.85  17 2.85  18 2.85  44 2.85  49 2.85  50 2.85  60 2.85
                             6 3.29  45 3.29  16 3.29  20 3.29  25 3.29  16 3.29
  39  0.750  0.500  0.000-   7 2.85  30 2.85  32 2.85  34 2.85  37 2.85  53 2.85  58 2.85  61 2.85
                            43 3.29  52 3.29   3 3.29  15 3.29  40 3.29  43 3.29
  40  0.500  0.500  0.000-   7 2.85   8 2.85  11 2.85  36 2.85  37 2.85  53 2.85  55 2.85  61 2.85
                            48 3.29   5 3.29  27 3.29  56 3.29  39 3.29  48 3.29
  41  0.750  0.750  0.500-   1 2.85  13 2.85  32 2.85  34 2.85  42 2.85  53 2.85  61 2.85  63 2.85
                            52 3.29  28 3.29  59 3.29  43 3.29  46 3.29  52 3.29
  42  0.625  0.875  0.250-   5 2.85  25 2.85  28 2.85  41 2.85  47 2.85  52 2.85  59 2.85  64 2.85
                             1 3.29  53 3.29  35 3.29  63 3.29  50 3.29   1 3.29
  43  0.750  0.500  0.500-   7 2.85  30 2.85  32 2.85  34 2.85  37 2.85  53 2.85  58 2.85  61 2.85
                            48 3.29  26 3.29  57 3.29  39 3.29  41 3.29  39 3.29
  44  0.125  0.125  0.750-   6 2.85  14 2.85  16 2.85  19 2.85  20 2.85  23 2.85  38 2.85  51 2.85
                            18 3.29  31 3.29  12 3.29  17 3.29  54 3.29  12 3.29
  45  0.250  0.750  0.500-   2 2.85   8 2.85  11 2.85  17 2.85  33 2.85  49 2.85  50 2.85  60 2.85
                            46 3.29  29 3.29  28 3.29  38 3.29  62 3.29  62 3.29
  46  0.000  0.750  0.500-   2 2.85  13 2.85  17 2.85  32 2.85  33 2.85  34 2.85  60 2.85  63 2.85
                            26 3.29  41 3.29  45 3.29   6 3.29  22 3.29  22 3.29
  47  0.500  0.000  0.000-   1 2.85   9 2.85  10 2.85  18 2.85  35 2.85  42 2.85  49 2.85  50 2.85
                            16 3.29   5 3.29  25 3.29  27 3.29  64 3.29  25 3.29
  48  0.500  0.500  0.500-   7 2.85   8 2.85  11 2.85  36 2.85  37 2.85  53 2.85  55 2.85  61 2.85
                            40 3.29  43 3.29  29 3.29  24 3.29  28 3.29  40 3.29
  49  0.375  0.875  0.750-   5 2.85  16 2.85  25 2.85  28 2.85  38 2.85  45 2.85  47 2.85  62 2.85
                            17 3.29  18 3.29   8 3.29  50 3.29   1 3.29  50 3.29
  50  0.375  0.875  0.250-   5 2.85  16 2.85  25 2.85  28 2.85  38 2.85  45 2.85  47 2.85  62 2.85
                            49 3.29  60 3.29  42 3.29  49 3.29
  51  0.250  0.250  0.000-   4 2.85  10 2.85  12 2.85  18 2.85  36 2.85  44 2.85  54 2.85  55 2.85
                            23 3.29  27 3.29  20 3.29  56 3.29  20 3.29
  52  0.750  0.750  0.000-   1 2.85  13 2.85  32 2.85  34 2.85  42 2.85  53 2.85  61 2.85  63 2.85
                            39 3.29  41 3.29  22 3.29  64 3.29  41 3.29
  53  0.625  0.625  0.250-   5 2.85  28 2.85  39 2.85  40 2.85  41 2.85  43 2.85  48 2.85  52 2.85
                            42 3.29  32 3.29  61 3.29  61 3.29
  54  0.125  0.375  0.750-  14 2.85  15 2.85  20 2.85  23 2.85  26 2.85  29 2.85  51 2.85  56 2.85
                            30 3.29  55 3.29  44 3.29
  55  0.375  0.375  0.750-  20 2.85  24 2.85  27 2.85  29 2.85  40 2.85  48 2.85  51 2.85  56 2.85
                            36 3.29  54 3.29  37 3.29  36 3.29
  56  0.250  0.500  0.000-   2 2.85   4 2.85   8 2.85  11 2.85  33 2.85  36 2.85  54 2.85  55 2.85
                            51 3.29  29 3.29  40 3.29  62 3.29  29 3.29
  57  0.750  0.250  0.500-   7 2.85   9 2.85  21 2.85  30 2.85  31 2.85  35 2.85  37 2.85  58 2.85
                            43 3.29  24 3.29  59 3.29
  58  0.875  0.375  0.250-   3 2.85  14 2.85  15 2.85  23 2.85  26 2.85  39 2.85  43 2.85  57 2.85
                            21 3.29  30 3.29  32 3.29  30 3.29
  59  0.750  0.000  0.500-   1 2.85   9 2.85  13 2.85  21 2.85  31 2.85  35 2.85  42 2.85  63 2.85
                            25 3.29  57 3.29  41 3.29  64 3.29  64 3.29
  60  0.125  0.875  0.250-   6 2.85  16 2.85  19 2.85  22 2.85  38 2.85  45 2.85  46 2.85  62 2.85
                            50 3.29  33 3.29  63 3.29
  61  0.625  0.625  0.750-   5 2.85  28 2.85  39 2.85  40 2.85  41 2.85  43 2.85  48 2.85  52 2.85
                            34 3.29  37 3.29  53 3.29  53 3.29
  62  0.250  0.750  0.000-   2 2.85   8 2.85  11 2.85  17 2.85  33 2.85  49 2.85  50 2.85  60 2.85
                            45 3.29  56 3.29  22 3.29  45 3.29
  63  0.875  0.875  0.250-   6 2.85  19 2.85  22 2.85  41 2.85  46 2.85  52 2.85  59 2.85  64 2.85
                            21 3.29  42 3.29  60 3.29  32 3.29
  64  0.750  0.000  0.000-   1 2.85   9 2.85  13 2.85  21 2.85  31 2.85  35 2.85  42 2.85  63 2.85
                            52 3.29  59 3.29  47 3.29  59 3.29
 
  LATTYP: Found a simple tetragonal cell.
 ALAT       =    13.1600000000
 C/A-ratio  =     0.5000000000
  
  Lattice vectors:
  
 A1 = (  13.1600000000,   0.0000000000,   0.0000000000)
 A2 = (   0.0000000000,  13.1600000000,   0.0000000000)
 A3 = (   0.0000000000,   0.0000000000,   6.5800000000)


Analysis of symmetry for initial positions (statically):
=====================================================================
 Subroutine PRICEL returns:
 Original cell was already a primitive cell.
 

 Routine SETGRP: Setting up the symmetry group for a 
 simple tetragonal supercell.


 Subroutine GETGRP returns: Found  1 space group operations
 (whereof  1 operations were pure point group operations)
 out of a pool of 16 trial point group operations.


The static configuration has the point symmetry C_1 .


Analysis of symmetry for dynamics (positions and initial velocities):
=====================================================================
 Subroutine PRICEL returns:
 Original cell was already a primitive cell.
 

 Routine SETGRP: Setting up the symmetry group for a 
 simple tetragonal supercell.


 Subroutine GETGRP returns: Found  1 space group operations
 (whereof  1 operations were pure point group operations)
 out of a pool of 16 trial point group operations.


The dynamic configuration has the point symmetry C_1 .


 Subroutine INISYM returns: Found  1 space group operations
 (whereof  1 operations are pure point group operations),
 and found     1 'primitive' translations


----------------------------------------------------------------------------------------

                                     Primitive cell                                     

  volume of cell :    1139.5612

  direct lattice vectors                    reciprocal lattice vectors
    13.160000000  0.000000000  0.000000000     0.075987842  0.000000000  0.000000000
     0.000000000 13.160000000  0.000000000     0.000000000  0.075987842  0.000000000
     0.000000000  0.000000000  6.580000000     0.000000000  0.000000000  0.151975684

  length of vectors
    13.160000000 13.160000000  6.580000000     0.075987842  0.075987842  0.151975684

  position of ions in fractional coordinates (direct lattice)
     0.625000000  0.875000000  0.750000000
     0.125000000  0.625000000  0.750000000
     0.750000000  0.250000000  0.000000000
     0.125000000  0.375000000  0.250000000
     0.500000000  0.750000000  0.000000000
     0.000000000  0.000000000  0.500000000
     0.625000000  0.375000000  0.250000000
     0.375000000  0.625000000  0.750000000
     0.625000000  0.125000000  0.750000000
     0.375000000  0.125000000  0.250000000
     0.375000000  0.625000000  0.250000000
     0.125000000  0.125000000  0.250000000
     0.875000000  0.875000000  0.750000000
     0.000000000  0.250000000  0.500000000
     0.000000000  0.500000000  0.000000000
     0.250000000  0.000000000  0.000000000
     0.125000000  0.875000000  0.750000000
     0.375000000  0.125000000  0.750000000
     0.000000000  0.000000000  0.000000000
     0.250000000  0.250000000  0.500000000
     0.875000000  0.125000000  0.250000000
     0.000000000  0.750000000  0.000000000
     0.000000000  0.250000000  0.000000000
     0.500000000  0.250000000  0.500000000
     0.500000000  0.000000000  0.500000000
     0.000000000  0.500000000  0.500000000
     0.500000000  0.250000000  0.000000000
     0.500000000  0.750000000  0.500000000
     0.250000000  0.500000000  0.500000000
     0.875000000  0.375000000  0.750000000
     0.875000000  0.125000000  0.750000000
     0.875000000  0.625000000  0.250000000
     0.125000000  0.625000000  0.250000000
     0.875000000  0.625000000  0.750000000
     0.625000000  0.125000000  0.250000000
     0.375000000  0.375000000  0.250000000
     0.625000000  0.375000000  0.750000000
     0.250000000  0.000000000  0.500000000
     0.750000000  0.500000000  0.000000000
     0.500000000  0.500000000  0.000000000
     0.750000000  0.750000000  0.500000000
     0.625000000  0.875000000  0.250000000
     0.750000000  0.500000000  0.500000000
     0.125000000  0.125000000  0.750000000
     0.250000000  0.750000000  0.500000000
     0.000000000  0.750000000  0.500000000
     0.500000000  0.000000000  0.000000000
     0.500000000  0.500000000  0.500000000
     0.375000000  0.875000000  0.750000000
     0.375000000  0.875000000  0.250000000
     0.250000000  0.250000000  0.000000000
     0.750000000  0.750000000  0.000000000
     0.625000000  0.625000000  0.250000000
     0.125000000  0.375000000  0.750000000
     0.375000000  0.375000000  0.750000000
     0.250000000  0.500000000  0.000000000
     0.750000000  0.250000000  0.500000000
     0.875000000  0.375000000  0.250000000
     0.750000000  0.000000000  0.500000000
     0.125000000  0.875000000  0.250000000
     0.625000000  0.625000000  0.750000000
     0.250000000  0.750000000  0.000000000
     0.875000000  0.875000000  0.250000000
     0.750000000  0.000000000  0.000000000

  ion indices of the primitive-cell ions
   primitive index   ion index
                 1           1
                 2           2
                 3           3
                 4           4
                 5           5
                 6           6
                 7           7
                 8           8
                 9           9
                10          10
                11          11
                12          12
                13          13
                14          14
                15          15
                16          16
                17          17
                18          18
                19          19
                20          20
                21          21
                22          22
                23          23
                24          24
                25          25
                26          26
                27          27
                28          28
                29          29
                30          30
                31          31
                32          32
                33          33
                34          34
                35          35
                36          36
                37          37
                38          38
                39          39
                40          40
                41          41
                42          42
                43          43
                44          44
                45          45
                46          46
                47          47
                48          48
                49          49
                50          50
                51          51
                52          52
                53          53
                54          54
                55          55
                56          56
                57          57
                58          58
                59          59
                60          60
                61          61
                62          62
                63          63
                64          64

----------------------------------------------------------------------------------------

 
 
 KPOINTS: K-Spacing Value to Generate K-Mesh: 0.03

Automatic generation of k-mesh.
 Grid dimensions read from file:
 generate k-points for:    3    3    5

 Generating k-lattice:

  Cartesian coordinates                     Fractional coordinates (reciprocal lattice)
     0.025329281  0.000000000  0.000000000     0.333333333  0.000000000  0.000000000
     0.000000000  0.025329281  0.000000000     0.000000000  0.333333333  0.000000000
     0.000000000  0.000000000  0.030395137     0.000000000  0.000000000  0.200000000

  Length of vectors
     0.025329281  0.025329281  0.030395137

  Shift w.r.t. Gamma in fractional coordinates (k-lattice)
     0.000000000  0.000000000  0.000000000

 
 Subroutine IBZKPT returns following result:
 ===========================================
 
 Found     23 irreducible k-points:
 
 Following reciprocal coordinates:
            Coordinates               Weight
  0.000000  0.000000  0.000000      1.000000
  0.333333  0.000000  0.000000      2.000000
  0.000000  0.333333  0.000000      2.000000
  0.333333  0.333333  0.000000      2.000000
 -0.333333  0.333333  0.000000      2.000000
  0.000000  0.000000  0.200000      2.000000
  0.333333  0.000000  0.200000      2.000000
  0.000000  0.333333  0.200000      2.000000
 -0.333333  0.000000  0.200000      2.000000
  0.000000 -0.333333  0.200000      2.000000
  0.333333  0.333333  0.200000      2.000000
 -0.333333  0.333333  0.200000      2.000000
 -0.333333 -0.333333  0.200000      2.000000
  0.333333 -0.333333  0.200000      2.000000
  0.000000  0.000000  0.400000      2.000000
  0.333333  0.000000  0.400000      2.000000
  0.000000  0.333333  0.400000      2.000000
 -0.333333  0.000000  0.400000      2.000000
  0.000000 -0.333333  0.400000      2.000000
  0.333333  0.333333  0.400000      2.000000
 -0.333333  0.333333  0.400000      2.000000
 -0.333333 -0.333333  0.400000      2.000000
  0.333333 -0.333333  0.400000      2.000000
 
 Following cartesian coordinates:
            Coordinates               Weight
  0.000000  0.000000  0.000000      1.000000
  0.025329  0.000000  0.000000      2.000000
  0.000000  0.025329  0.000000      2.000000
  0.025329  0.025329  0.000000      2.000000
 -0.025329  0.025329  0.000000      2.000000
  0.000000  0.000000  0.030395      2.000000
  0.025329  0.000000  0.030395      2.000000
  0.000000  0.025329  0.030395      2.000000
 -0.025329  0.000000  0.030395      2.000000
  0.000000 -0.025329  0.030395      2.000000
  0.025329  0.025329  0.030395      2.000000
 -0.025329  0.025329  0.030395      2.000000
 -0.025329 -0.025329  0.030395      2.000000
  0.025329 -0.025329  0.030395      2.000000
  0.000000  0.000000  0.060790      2.000000
  0.025329  0.000000  0.060790      2.000000
  0.000000  0.025329  0.060790      2.000000
 -0.025329  0.000000  0.060790      2.000000
  0.000000 -0.025329  0.060790      2.000000
  0.025329  0.025329  0.060790      2.000000
 -0.025329  0.025329  0.060790      2.000000
 -0.025329 -0.025329  0.060790      2.000000
  0.025329 -0.025329  0.060790      2.000000
 


--------------------------------------------------------------------------------------------------------




 Dimension of arrays:
   k-points           NKPTS =     23   k-points in BZ     NKDIM =     23   number of bands    NBANDS=    500
   number of dos      NEDOS =    301   number of ions     NIONS =     64
   non local maximal  LDIM  =      6   non local SUM 2l+1 LMDIM =     18
   total plane-waves  NPLWV = 176400
   max r-space proj   IRMAX =      1   max aug-charges    IRDMAX=   9034
   dimension x,y,z NGX =    70 NGY =   70 NGZ =   36
   dimension x,y,z NGXF=   140 NGYF=  140 NGZF=   72
   support grid    NGXF=   140 NGYF=  140 NGZF=   72
   ions per type =              19  15  15  15
   NGX,Y,Z   is equivalent  to a cutoff of   8.84,  8.84,  9.10 a.u.
   NGXF,Y,Z  is equivalent  to a cutoff of  17.69, 17.69, 18.19 a.u.

 SYSTEM =  unknown system                          
 POSCAR =  Nb-Mo-Ta-W alloy                        

 Startparameter for this run:
   NWRITE =      2    write-flag & timer
   PREC   = accura    normal or accurate (medium, high low for compatibility)
   ISTART =      0    job   : 0-new  1-cont  2-samecut
   ICHARG =      2    charge: 1-file 2-atom 10-const
   ISPIN  =      1    spin polarized calculation?
   LNONCOLLINEAR =      F non collinear calculations
   LSORBIT =      F    spin-orbit coupling
   INIWAV =      1    electr: 0-lowe 1-rand  2-diag
   LASPH  =      F    aspherical Exc in radial PAW
 Electronic Relaxation 1
   ENCUT  =  250.0 eV  18.37 Ry    4.29 a.u.  16.97 16.97  8.48*2*pi/ulx,y,z
   ENINI  =  250.0     initial cutoff
   ENAUG  =  455.7 eV  augmentation charge cutoff
   NELM   =     80;   NELMIN=  2; NELMDL= -5     # of ELM steps 
   EDIFF  = 0.1E-07   stopping-criterion for ELM
   LREAL  =      F    real-space projection
   NLSPLINE    = F    spline interpolate recip. space projectors
   LCOMPAT=      F    compatible to vasp.4.4
   GGA_COMPAT  = T    GGA compatible to vasp.4.4-vasp.4.6
   LMAXPAW     = -100 max onsite density
   LMAXMIX     =    2 max onsite mixed and CHGCAR
   VOSKOWN=      0    Vosko Wilk Nusair interpolation
   ROPT   =    0.00000   0.00000   0.00000   0.00000
 Ionic relaxation
   EDIFFG = -.1E-01   stopping-criterion for IOM
   NSW    =      0    number of steps for IOM
   NBLOCK =      1;   KBLOCK =      1    inner block; outer block 
   IBRION =     -1    ionic relax: 0-MD 1-quasi-New 2-CG
   NFREE  =      0    steps in history (QN), initial steepest desc. (CG)
   ISIF   =      2    stress and relaxation
   IWAVPR =     10    prediction:  0-non 1-charg 2-wave 3-comb
   ISYM   =      2    0-nonsym 1-usesym 2-fastsym
   LCORR  =      T    Harris-Foulkes like correction to forces

   POTIM  = 0.5000    time-step for ionic-motion
   TEIN   =    0.0    initial temperature
   TEBEG  =    0.0;   TEEND  =   0.0 temperature during run
   SMASS  =  -3.00    Nose mass-parameter (am)
   estimated Nose-frequenzy (Omega)   =  0.10E-29 period in steps = 0.13E+47 mass=  -0.396E-26a.u.
   SCALEE = 1.0000    scale energy and forces
   NPACO  =    256;   APACO  = 10.0  distance and # of slots for P.C.
   PSTRESS=    0.0 pullay stress

  Mass of Ions in am
   POMASS =  92.91 95.94180.95183.85
  Ionic Valenz
   ZVAL   =  13.00 14.00 11.00 14.00
  Atomic Wigner-Seitz radii
   RWIGS  =  -1.00 -1.00 -1.00 -1.00
  virtual crystal weights 
   VCA    =   1.00  1.00  1.00  1.00
   NELECT =     832.0000    total number of electrons
   NUPDOWN=      -1.0000    fix difference up-down

 DOS related values:
   EMIN   =  10.00;   EMAX   =-10.00  energy-range for DOS
   EFERMI =   0.00
   ISMEAR =     0;   SIGMA  =   0.02  broadening in eV -4-tet -1-fermi 0-gaus

 Electronic relaxation 2 (details)
   IALGO  =     38    algorithm
   LDIAG  =      T    sub-space diagonalisation (order eigenvalues)
   LSUBROT=      F    optimize rotation matrix (better conditioning)
   TURBO    =      0    0=normal 1=particle mesh
   IRESTART =      0    0=no restart 2=restart with 2 vectors
   NREBOOT  =      0    no. of reboots
   NMIN     =      0    reboot dimension
   EREF     =   0.00    reference energy to select bands
   IMIX   =      4    mixing-type and parameters
     AMIX     =   0.40;   BMIX     =  1.00
     AMIX_MAG =   1.60;   BMIX_MAG =  1.00
     AMIN     =   0.10
     WC   =   100.;   INIMIX=   1;  MIXPRE=   1;  MAXMIX= -45

 Intra band minimization:
   WEIMIN = 0.0000     energy-eigenvalue tresh-hold
   EBREAK =  0.50E-11  absolut break condition
   DEPER  =   0.30     relativ break condition  

   TIME   =   0.40     timestep for ELM

  volume/ion in A,a.u.               =      17.81       120.16
  Fermi-wavevector in a.u.,A,eV,Ry     =   1.474133  2.785708 29.566393  2.173069
  Thomas-Fermi vector in A             =   2.588942
 
 Write flags
   LWAVE        =      F    write WAVECAR
   LDOWNSAMPLE  =      F    k-point downsampling of WAVECAR
   LCHARG       =      F    write CHGCAR
   LVTOT        =      F    write LOCPOT, total local potential
   LVHAR        =      F    write LOCPOT, Hartree potential only
   LELF         =      F    write electronic localiz. function (ELF)
   LORBIT       =      0    0 simple, 1 ext, 2 COOP (PROOUT), +10 PAW based schemes


 Dipole corrections
   LMONO  =      F    monopole corrections only (constant potential shift)
   LDIPOL =      F    correct potential (dipole corrections)
   IDIPOL =      0    1-x, 2-y, 3-z, 4-all directions 
   EPSILON=  1.0000000 bulk dielectric constant

 Core level calculations are selected ICORELEVEL =  1
 Exchange correlation treatment:
   GGA     =    PE    GGA type
   LEXCH   =     8    internal setting for exchange type
   LIBXC   =     F    Libxc                    
   VOSKOWN =     0    Vosko Wilk Nusair interpolation
   LHFCALC =     F    Hartree Fock is set to
   LHFONE  =     F    Hartree Fock one center treatment
   AEXX    =    0.0000 exact exchange contribution

 Linear response parameters
   LEPSILON=     F    determine dielectric tensor
   LRPA    =     F    only Hartree local field effects (RPA)
   LNABLA  =     F    use nabla operator in PAW spheres
   LVEL    =     F    velocity operator in full k-point grid
   CSHIFT  =0.1000    complex shift for real part using Kramers Kronig
   OMEGAMAX=  -1.0    maximum frequency
   DEG_THRESHOLD= 0.2000000E-02 threshold for treating states as degnerate
   RTIME   =   -0.100 relaxation time in fs
  (WPLASMAI=    0.000 imaginary part of plasma frequency in eV, 0.658/RTIME)
   DFIELD  = 0.0000000 0.0000000 0.0000000 field for delta impulse in time
 
  Optional k-point grid parameters
   LKPOINTS_OPT  =     F    use optional k-point grid
   KPOINTS_OPT_MODE=     1    mode for optional k-point grid
 
 Orbital magnetization related:
   ORBITALMAG=     F  switch on orbital magnetization
   LCHIMAG   =     F  perturbation theory with respect to B field
   DQ        =  0.001000  dq finite difference perturbation B field
   LLRAUG    =     F  two centre corrections for induced B field



--------------------------------------------------------------------------------------------------------


 Static calculation
 charge density and potential will be updated during run
 non-spin polarized calculation
 Variant of blocked Davidson
 Davidson routine will perform the subspace rotation
 perform sub-space diagonalisation
    after iterative eigenvector-optimisation
 modified Broyden-mixing scheme, WC =      100.0
 initial mixing is a Kerker type mixing with AMIX =  0.4000 and BMIX =      1.0000
 Hartree-type preconditioning will be used
 using additional bands           84
 reciprocal scheme for non local part
 use partial core corrections
 calculate Harris-corrections to forces 
   (improved forces if not selfconsistent)
 use gradient corrections 
 use of overlap-Matrix (Vanderbilt PP)
 Gauss-broadening in eV      SIGMA  =   0.02


--------------------------------------------------------------------------------------------------------


  energy-cutoff  :      250.00
  volume of cell :     1139.56
      direct lattice vectors                 reciprocal lattice vectors
    13.160000000  0.000000000  0.000000000     0.075987842  0.000000000  0.000000000
     0.000000000 13.160000000  0.000000000     0.000000000  0.075987842  0.000000000
     0.000000000  0.000000000  6.580000000     0.000000000  0.000000000  0.151975684

  length of vectors
    13.160000000 13.160000000  6.580000000     0.075987842  0.075987842  0.151975684


 
 k-points in units of 2pi/SCALE and weight: K-Spacing Value to Generate K-Mesh: 0.03
   0.00000000  0.00000000  0.00000000       0.022
   0.02532928  0.00000000  0.00000000       0.044
   0.00000000  0.02532928  0.00000000       0.044
   0.02532928  0.02532928  0.00000000       0.044
  -0.02532928  0.02532928  0.00000000       0.044
   0.00000000  0.00000000  0.03039514       0.044
   0.02532928  0.00000000  0.03039514       0.044
   0.00000000  0.02532928  0.03039514       0.044
  -0.02532928  0.00000000  0.03039514       0.044
   0.00000000 -0.02532928  0.03039514       0.044
   0.02532928  0.02532928  0.03039514       0.044
  -0.02532928  0.02532928  0.03039514       0.044
  -0.02532928 -0.02532928  0.03039514       0.044
   0.02532928 -0.02532928  0.03039514       0.044
   0.00000000  0.00000000  0.06079027       0.044
   0.02532928  0.00000000  0.06079027       0.044
   0.00000000  0.02532928  0.06079027       0.044
  -0.02532928  0.00000000  0.06079027       0.044
   0.00000000 -0.02532928  0.06079027       0.044
   0.02532928  0.02532928  0.06079027       0.044
  -0.02532928  0.02532928  0.06079027       0.044
  -0.02532928 -0.02532928  0.06079027       0.044
   0.02532928 -0.02532928  0.06079027       0.044
 
 k-points in reciprocal lattice and weights: K-Spacing Value to Generate K-Mesh: 0.03
   0.00000000  0.00000000  0.00000000       0.022
   0.33333333  0.00000000  0.00000000       0.044
   0.00000000  0.33333333  0.00000000       0.044
   0.33333333  0.33333333  0.00000000       0.044
  -0.33333333  0.33333333  0.00000000       0.044
   0.00000000  0.00000000  0.20000000       0.044
   0.33333333  0.00000000  0.20000000       0.044
   0.00000000  0.33333333  0.20000000       0.044
  -0.33333333  0.00000000  0.20000000       0.044
   0.00000000 -0.33333333  0.20000000       0.044
   0.33333333  0.33333333  0.20000000       0.044
  -0.33333333  0.33333333  0.20000000       0.044
  -0.33333333 -0.33333333  0.20000000       0.044
   0.33333333 -0.33333333  0.20000000       0.044
   0.00000000  0.00000000  0.40000000       0.044
   0.33333333  0.00000000  0.40000000       0.044
   0.00000000  0.33333333  0.40000000       0.044
  -0.33333333  0.00000000  0.40000000       0.044
   0.00000000 -0.33333333  0.40000000       0.044
   0.33333333  0.33333333  0.40000000       0.044
  -0.33333333  0.33333333  0.40000000       0.044
  -0.33333333 -0.33333333  0.40000000       0.044
   0.33333333 -0.33333333  0.40000000       0.044
 
 position of ions in fractional coordinates (direct lattice) 
   0.62500000  0.87500000  0.75000000
   0.12500000  0.62500000  0.75000000
   0.75000000  0.25000000  0.00000000
   0.12500000  0.37500000  0.25000000
   0.50000000  0.75000000  0.00000000
   0.00000000  0.00000000  0.50000000
   0.62500000  0.37500000  0.25000000
   0.37500000  0.62500000  0.75000000
   0.62500000  0.12500000  0.75000000
   0.37500000  0.12500000  0.25000000
   0.37500000  0.62500000  0.25000000
   0.12500000  0.12500000  0.25000000
   0.87500000  0.87500000  0.75000000
   0.00000000  0.25000000  0.50000000
   0.00000000  0.50000000  0.00000000
   0.25000000  0.00000000  0.00000000
   0.12500000  0.87500000  0.75000000
   0.37500000  0.12500000  0.75000000
   0.00000000  0.00000000  0.00000000
   0.25000000  0.25000000  0.50000000
   0.87500000  0.12500000  0.25000000
   0.00000000  0.75000000  0.00000000
   0.00000000  0.25000000  0.00000000
   0.50000000  0.25000000  0.50000000
   0.50000000  0.00000000  0.50000000
   0.00000000  0.50000000  0.50000000
   0.50000000  0.25000000  0.00000000
   0.50000000  0.75000000  0.50000000
   0.25000000  0.50000000  0.50000000
   0.87500000  0.37500000  0.75000000
   0.87500000  0.12500000  0.75000000
   0.87500000  0.62500000  0.25000000
   0.12500000  0.62500000  0.25000000
   0.87500000  0.62500000  0.75000000
   0.62500000  0.12500000  0.25000000
   0.37500000  0.37500000  0.25000000
   0.62500000  0.37500000  0.75000000
   0.25000000  0.00000000  0.50000000
   0.75000000  0.50000000  0.00000000
   0.50000000  0.50000000  0.00000000
   0.75000000  0.75000000  0.50000000
   0.62500000  0.87500000  0.25000000
   0.75000000  0.50000000  0.50000000
   0.12500000  0.12500000  0.75000000
   0.25000000  0.75000000  0.50000000
   0.00000000  0.75000000  0.50000000
   0.50000000  0.00000000  0.00000000
   0.50000000  0.50000000  0.50000000
   0.37500000  0.87500000  0.75000000
   0.37500000  0.87500000  0.25000000
   0.25000000  0.25000000  0.00000000
   0.75000000  0.75000000  0.00000000
   0.62500000  0.62500000  0.25000000
   0.12500000  0.37500000  0.75000000
   0.37500000  0.37500000  0.75000000
   0.25000000  0.50000000  0.00000000
   0.75000000  0.25000000  0.50000000
   0.87500000  0.37500000  0.25000000
   0.75000000  0.00000000  0.50000000
   0.12500000  0.87500000  0.25000000
   0.62500000  0.62500000  0.75000000
   0.25000000  0.75000000  0.00000000
   0.87500000  0.87500000  0.25000000
   0.75000000  0.00000000  0.00000000
 
 position of ions in cartesian coordinates  (Angst):
   8.22500000 11.51500000  4.93500000
   1.64500000  8.22500000  4.93500000
   9.87000000  3.29000000  0.00000000
   1.64500000  4.93500000  1.64500000
   6.58000000  9.87000000  0.00000000
   0.00000000  0.00000000  3.29000000
   8.22500000  4.93500000  1.64500000
   4.93500000  8.22500000  4.93500000
   8.22500000  1.64500000  4.93500000
   4.93500000  1.64500000  1.64500000
   4.93500000  8.22500000  1.64500000
   1.64500000  1.64500000  1.64500000
  11.51500000 11.51500000  4.93500000
   0.00000000  3.29000000  3.29000000
   0.00000000  6.58000000  0.00000000
   3.29000000  0.00000000  0.00000000
   1.64500000 11.51500000  4.93500000
   4.93500000  1.64500000  4.93500000
   0.00000000  0.00000000  0.00000000
   3.29000000  3.29000000  3.29000000
  11.51500000  1.64500000  1.64500000
   0.00000000  9.87000000  0.00000000
   0.00000000  3.29000000  0.00000000
   6.58000000  3.29000000  3.29000000
   6.58000000  0.00000000  3.29000000
   0.00000000  6.58000000  3.29000000
   6.58000000  3.29000000  0.00000000
   6.58000000  9.87000000  3.29000000
   3.29000000  6.58000000  3.29000000
  11.51500000  4.93500000  4.93500000
  11.51500000  1.64500000  4.93500000
  11.51500000  8.22500000  1.64500000
   1.64500000  8.22500000  1.64500000
  11.51500000  8.22500000  4.93500000
   8.22500000  1.64500000  1.64500000
   4.93500000  4.93500000  1.64500000
   8.22500000  4.93500000  4.93500000
   3.29000000  0.00000000  3.29000000
   9.87000000  6.58000000  0.00000000
   6.58000000  6.58000000  0.00000000
   9.87000000  9.87000000  3.29000000
   8.22500000 11.51500000  1.64500000
   9.87000000  6.58000000  3.29000000
   1.64500000  1.64500000  4.93500000
   3.29000000  9.87000000  3.29000000
   0.00000000  9.87000000  3.29000000
   6.58000000  0.00000000  0.00000000
   6.58000000  6.58000000  3.29000000
   4.93500000 11.51500000  4.93500000
   4.93500000 11.51500000  1.64500000
   3.29000000  3.29000000  0.00000000
   9.87000000  9.87000000  0.00000000
   8.22500000  8.22500000  1.64500000
   1.64500000  4.93500000  4.93500000
   4.93500000  4.93500000  4.93500000
   3.29000000  6.58000000  0.00000000
   9.87000000  3.29000000  3.29000000
  11.51500000  4.93500000  1.64500000
   9.87000000  0.00000000  3.29000000
   1.64500000 11.51500000  1.64500000
   8.22500000  8.22500000  4.93500000
   3.29000000  9.87000000  0.00000000
  11.51500000 11.51500000  1.64500000
   9.87000000  0.00000000  0.00000000
 


--------------------------------------------------------------------------------------------------------


 k-point   1 :   0.0000 0.0000 0.0000  plane waves:   10181
 k-point   2 :   0.3333 0.0000 0.0000  plane waves:   10238
 k-point   3 :   0.0000 0.3333 0.0000  plane waves:   10238
 k-point   4 :   0.3333 0.3333 0.0000  plane waves:   10248
 k-point   5 :  -0.3333 0.3333 0.0000  plane waves:   10248
 k-point   6 :   0.0000 0.0000 0.2000  plane waves:   10193
 k-point   7 :   0.3333 0.0000 0.2000  plane waves:   10246
 k-point   8 :   0.0000 0.3333 0.2000  plane waves:   10246
 k-point   9 :  -0.3333 0.0000 0.2000  plane waves:   10246
 k-point  10 :   0.0000-0.3333 0.2000  plane waves:   10246
 k-point  11 :   0.3333 0.3333 0.2000  plane waves:   10238
 k-point  12 :  -0.3333 0.3333 0.2000  plane waves:   10238
 k-point  13 :  -0.3333-0.3333 0.2000  plane waves:   10238
 k-point  14 :   0.3333-0.3333 0.2000  plane waves:   10238
 k-point  15 :   0.0000 0.0000 0.4000  plane waves:   10201
 k-point  16 :   0.3333 0.0000 0.4000  plane waves:   10223
 k-point  17 :   0.0000 0.3333 0.4000  plane waves:   10223
 k-point  18 :  -0.3333 0.0000 0.4000  plane waves:   10223
 k-point  19 :   0.0000-0.3333 0.4000  plane waves:   10223
 k-point  20 :   0.3333 0.3333 0.4000  plane waves:   10193
 k-point  21 :  -0.3333 0.3333 0.4000  plane waves:   10193
 k-point  22 :  -0.3333-0.3333 0.4000  plane waves:   10193
 k-point  23 :   0.3333-0.3333 0.4000  plane waves:   10193

 maximum and minimum number of plane-waves per node :       880      830

 maximum number of plane-waves:     10248
 maximum index in each direction: 
   IXMAX=   17   IYMAX=   17   IZMAX=    8
   IXMIN=  -17   IYMIN=  -17   IZMIN=   -8


 parallel 3D FFT for wavefunctions:
    minimum data exchange during FFTs selected (reduces bandwidth)
 parallel 3D FFT for charge:
    minimum data exchange during FFTs selected (reduces bandwidth)


 total amount of memory used by VASP MPI-rank0    90992. kBytes
=======================================================================

   base      :      30000. kBytes
   nonl-proj :      12216. kBytes
   fftplans  :       1504. kBytes
   grid      :       2835. kBytes
   one-center:         93. kBytes
   wavefun   :      44344. kBytes
 
     INWAV:  cpu time      0.0000: real time      0.0000
 Broyden mixing: mesh for mixing (old mesh)
   NGX = 33   NGY = 33   NGZ = 17
  (NGX  =140   NGY  =140   NGZ  = 72)
  gives a total of  18513 points

 initial charge density was supplied:
 charge density of overlapping atoms calculated
 number of electron     832.0000000 magnetization 
 keeping initial charge density in first step


--------------------------------------------------------------------------------------------------------


 Maximum index for augmentation-charges          501 (set IRDMAX)


--------------------------------------------------------------------------------------------------------


 First call to EWALD:  gamma=   0.170
 Maximum number of real-space cells 2x 2x 4
 Maximum number of reciprocal cells 3x 3x 2

    FEWALD:  cpu time      0.1389: real time      0.1453


--------------------------------------- Iteration      1(   1)  ---------------------------------------


    POTLOK:  cpu time      0.2092: real time      0.4748
    SETDIJ:  cpu time      0.1232: real time      0.2017
     EDDAV:  cpu time     73.4141: real time     76.4535
       DOS:  cpu time      0.1350: real time      0.1355
    --------------------------------------------
      LOOP:  cpu time     73.8815: real time     77.2655

 eigenvalue-minimisations  : 23328
 total energy-change (2. order) : 0.7990540E+04  (-0.3240919E+05)
 number of electron     832.0000000 magnetization 
 augmentation part      832.0000000 magnetization 

 Free energy of the ion-electron system (eV)
  ---------------------------------------------------
  alpha Z        PSCENC =      7188.25595052
  Ewald energy   TEWEN  =    -86276.39940434
  -Hartree energ DENC   =    -16306.88353559
  -exchange      EXHF   =         0.00000000
  -V(xc)+E(xc)   XCENC  =      3288.85244212
  PAW double counting   =     80175.61267265   -78950.80906914
  entropy T*S    EENTRO =        -0.00378968
  eigenvalues    EBANDS =     -2295.45825740
  atomic energy  EATOM  =    101167.37279840
  Solvation  Ediel_sol  =         0.00000000
  ---------------------------------------------------
  free energy    TOTEN  =      7990.53980754 eV

  energy without entropy =     7990.54359721  energy(sigma->0) =     7990.54170238


--------------------------------------------------------------------------------------------------------




--------------------------------------- Iteration      1(   2)  ---------------------------------------


     EDDAV:  cpu time     60.3761: real time     62.5094
       DOS:  cpu time      0.5744: real time      0.5765
    --------------------------------------------
      LOOP:  cpu time     60.9506: real time     63.0858

 eigenvalue-minimisations  : 23036
 total energy-change (2. order) :-0.7960923E+04  (-0.7730433E+04)
 number of electron     832.0000000 magnetization 
 augmentation part      832.0000000 magnetization 

 Free energy of the ion-electron system (eV)
  ---------------------------------------------------
  alpha Z        PSCENC =      7188.25595052
  Ewald energy   TEWEN  =    -86276.39940434
  -Hartree energ DENC   =    -16306.88353559
  -exchange      EXHF   =         0.00000000
  -V(xc)+E(xc)   XCENC  =      3288.85244212
  PAW double counting   =     80175.61267265   -78950.80906914
  entropy T*S    EENTRO =        -0.00641034
  eigenvalues    EBANDS =    -10256.37889722
  atomic energy  EATOM  =    101167.37279840
  Solvation  Ediel_sol  =         0.00000000
  ---------------------------------------------------
  free energy    TOTEN  =        29.61654706 eV

  energy without entropy =       29.62295739  energy(sigma->0) =       29.61975223


--------------------------------------------------------------------------------------------------------




--------------------------------------- Iteration      1(   3)  ---------------------------------------


     EDDAV:  cpu time     54.6466: real time     57.0803
       DOS:  cpu time      0.0902: real time      0.1715
    --------------------------------------------
      LOOP:  cpu time     54.7368: real time     57.2518

 eigenvalue-minimisations  : 34688
 total energy-change (2. order) :-0.7387175E+03  (-0.6934945E+03)
 number of electron     832.0000000 magnetization 
 augmentation part      832.0000000 magnetization 

 Free energy of the ion-electron system (eV)
  ---------------------------------------------------
  alpha Z        PSCENC =      7188.25595052
  Ewald energy   TEWEN  =    -86276.39940434
  -Hartree energ DENC   =    -16306.88353559
  -exchange      EXHF   =         0.00000000
  -V(xc)+E(xc)   XCENC  =      3288.85244212
  PAW double counting   =     80175.61267265   -78950.80906914
  entropy T*S    EENTRO =        -0.01091747
  eigenvalues    EBANDS =    -10995.09192707
  atomic energy  EATOM  =    101167.37279840
  Solvation  Ediel_sol  =         0.00000000
  ---------------------------------------------------
  free energy    TOTEN  =      -709.10098993 eV

  energy without entropy =     -709.09007246  energy(sigma->0) =     -709.09553119


--------------------------------------------------------------------------------------------------------




--------------------------------------- Iteration      1(   4)  ---------------------------------------


     EDDAV:  cpu time     61.3456: real time     63.7718
       DOS:  cpu time      0.1449: real time      0.1455
    --------------------------------------------
      LOOP:  cpu time     61.4905: real time     63.9173

 eigenvalue-minimisations  : 35832
 total energy-change (2. order) :-0.5763868E+02  (-0.5531365E+02)
 number of electron     832.0000000 magnetization 
 augmentation part      832.0000000 magnetization 

 Free energy of the ion-electron system (eV)
  ---------------------------------------------------
  alpha Z        PSCENC =      7188.25595052
  Ewald energy   TEWEN  =    -86276.39940434
  -Hartree energ DENC   =    -16306.88353559
  -exchange      EXHF   =         0.00000000
  -V(xc)+E(xc)   XCENC  =      3288.85244212
  PAW double counting   =     80175.61267265   -78950.80906914
  entropy T*S    EENTRO =        -0.00649038
  eigenvalues    EBANDS =    -11052.73503883
  atomic energy  EATOM  =    101167.37279840
  Solvation  Ediel_sol  =         0.00000000
  ---------------------------------------------------
  free energy    TOTEN  =      -766.73967459 eV

  energy without entropy =     -766.73318421  energy(sigma->0) =     -766.73642940


--------------------------------------------------------------------------------------------------------




--------------------------------------- Iteration      1(   5)  ---------------------------------------


     EDDAV:  cpu time     53.2353: real time     55.1763
       DOS:  cpu time      0.4503: real time      0.5640
    CHARGE:  cpu time      0.7157: real time      0.7317
    MIXING:  cpu time      0.1473: real time      0.1769
    --------------------------------------------
      LOOP:  cpu time     54.5486: real time     56.6489

 eigenvalue-minimisations  : 36672
 total energy-change (2. order) :-0.3563767E+01  (-0.3527310E+01)
 number of electron     831.9999645 magnetization 
 augmentation part      166.9706116 magnetization 

 Broyden mixing:
  rms(total) = 0.10419E+02    rms(broyden)= 0.10417E+02
  rms(prec ) = 0.10725E+02
  weight for this iteration     100.00

 Free energy of the ion-electron system (eV)
  ---------------------------------------------------
  alpha Z        PSCENC =      7188.25595052
  Ewald energy   TEWEN  =    -86276.39940434
  -Hartree energ DENC   =    -16306.88353559
  -exchange      EXHF   =         0.00000000
  -V(xc)+E(xc)   XCENC  =      3288.85244212
  PAW double counting   =     80175.61267265   -78950.80906914
  entropy T*S    EENTRO =        -0.00685770
  eigenvalues    EBANDS =    -11056.29843843
  atomic energy  EATOM  =    101167.37279840
  Solvation  Ediel_sol  =         0.00000000
  ---------------------------------------------------
  free energy    TOTEN  =      -770.30344151 eV

  energy without entropy =     -770.29658381  energy(sigma->0) =     -770.30001266


--------------------------------------------------------------------------------------------------------




--------------------------------------- Iteration      1(   6)  ---------------------------------------


    POTLOK:  cpu time      0.2908: real time      0.4031
    SETDIJ:  cpu time      0.1771: real time      0.2169
     EDDAV:  cpu time     29.8818: real time     29.9976
       DOS:  cpu time      0.0073: real time      0.0073
    CHARGE:  cpu time      0.4424: real time      0.4439
    MIXING:  cpu time      0.0005: real time      0.0005
    --------------------------------------------
      LOOP:  cpu time     30.7998: real time     31.0693

 eigenvalue-minimisations  : 28064
 total energy-change (2. order) : 0.2738606E+02  (-0.8729170E+01)
 number of electron     831.9999643 magnetization 
 augmentation part      173.5663895 magnetization 

 Broyden mixing:
  rms(total) = 0.39405E+01    rms(broyden)= 0.39395E+01
  rms(prec ) = 0.47930E+01
  weight for this iteration     100.00

 eigenvalues of (default mixing * dielectric matrix)
  average eigenvalue GAMMA=   1.4485
  1.4485

 Free energy of the ion-electron system (eV)
  ---------------------------------------------------
  alpha Z        PSCENC =      7188.25595052
  Ewald energy   TEWEN  =    -86276.39940434
  -Hartree energ DENC   =    -15412.92474430
  -exchange      EXHF   =         0.00000000
  -V(xc)+E(xc)   XCENC  =      3244.92136225
  PAW double counting   =     94653.11667538   -93533.64048679
  entropy T*S    EENTRO =        -0.01053763
  eigenvalues    EBANDS =    -11773.60899453
  atomic energy  EATOM  =    101167.37279840
  Solvation  Ediel_sol  =         0.00000000
  ---------------------------------------------------
  free energy    TOTEN  =      -742.91738104 eV

  energy without entropy =     -742.90684341  energy(sigma->0) =     -742.91211223


--------------------------------------------------------------------------------------------------------




--------------------------------------- Iteration      1(   7)  ---------------------------------------


    POTLOK:  cpu time      0.0138: real time      0.0139
    SETDIJ:  cpu time      0.0041: real time      0.0042
     EDDAV:  cpu time     36.6604: real time     36.8093
       DOS:  cpu time      0.0071: real time      0.0071
    CHARGE:  cpu time      0.4785: real time      0.4803
    MIXING:  cpu time      0.2241: real time      0.2249
    --------------------------------------------
      LOOP:  cpu time     37.3880: real time     37.5397

 eigenvalue-minimisations  : 32664
 total energy-change (2. order) :-0.3213491E+02  (-0.1161819E+02)
 number of electron     831.9999622 magnetization 
 augmentation part      173.2380137 magnetization 

 Broyden mixing:
  rms(total) = 0.33083E+01    rms(broyden)= 0.33053E+01
  rms(prec ) = 0.93588E+01
  weight for this iteration     100.00

 eigenvalues of (default mixing * dielectric matrix)
  average eigenvalue GAMMA=   0.9996
  1.5848  0.4143

 Free energy of the ion-electron system (eV)
  ---------------------------------------------------
  alpha Z        PSCENC =      7188.25595052
  Ewald energy   TEWEN  =    -86276.39940434
  -Hartree energ DENC   =    -15176.14000568
  -exchange      EXHF   =         0.00000000
  -V(xc)+E(xc)   XCENC  =      3229.95733177
  PAW double counting   =    103437.59330634  -102352.49770807
  entropy T*S    EENTRO =        -0.01079401
  eigenvalues    EBANDS =    -11993.18376547
  atomic energy  EATOM  =    101167.37279840
  Solvation  Ediel_sol  =         0.00000000
  ---------------------------------------------------
  free energy    TOTEN  =      -775.05229053 eV

  energy without entropy =     -775.04149652  energy(sigma->0) =     -775.04689352


--------------------------------------------------------------------------------------------------------




--------------------------------------- Iteration      1(   8)  ---------------------------------------


    POTLOK:  cpu time      0.3566: real time      0.3581
    SETDIJ:  cpu time      0.1594: real time      0.1600
     EDDAV:  cpu time     33.6642: real time     33.7960
       DOS:  cpu time      0.0074: real time      0.0074
    CHARGE:  cpu time      0.4542: real time      0.4559
    MIXING:  cpu time      0.0005: real time      0.0005
    --------------------------------------------
      LOOP:  cpu time     34.6423: real time     34.7779

 eigenvalue-minimisations  : 33464
 total energy-change (2. order) : 0.4091826E+02  (-0.8449207E+01)
 number of electron     831.9999634 magnetization 
 augmentation part      174.6670825 magnetization 

 Broyden mixing:
  rms(total) = 0.13642E+01    rms(broyden)= 0.13595E+01
  rms(prec ) = 0.24412E+01
  weight for this iteration     100.00

 eigenvalues of (default mixing * dielectric matrix)
  average eigenvalue GAMMA=   0.8721
  1.6864  0.6676  0.2624

 Free energy of the ion-electron system (eV)
  ---------------------------------------------------
  alpha Z        PSCENC =      7188.25595052
  Ewald energy   TEWEN  =    -86276.39940434
  -Hartree energ DENC   =    -15023.35598263
  -exchange      EXHF   =         0.00000000
  -V(xc)+E(xc)   XCENC  =      3223.67580426
  PAW double counting   =    106546.58196474  -105479.21242666
  entropy T*S    EENTRO =        -0.01060610
  eigenvalues    EBANDS =    -12081.04212885
  atomic energy  EATOM  =    101167.37279840
  Solvation  Ediel_sol  =         0.00000000
  ---------------------------------------------------
  free energy    TOTEN  =      -734.13403066 eV

  energy without entropy =     -734.12342456  energy(sigma->0) =     -734.12872761


--------------------------------------------------------------------------------------------------------




--------------------------------------- Iteration      1(   9)  ---------------------------------------


    POTLOK:  cpu time      0.0167: real time      0.0169
    SETDIJ:  cpu time      0.0042: real time      0.0042
     EDDAV:  cpu time     37.3970: real time     37.5409
       DOS:  cpu time      0.0086: real time      0.0087
    CHARGE:  cpu time      0.4528: real time      0.4544
    MIXING:  cpu time      0.1176: real time      0.1180
[...]
 -0.004  -0.022  -0.008   0.005  -0.008   0.015  -0.009   0.007   3.343  -0.030   0.031   0.036  -0.004  -1.414  -0.001  -0.013
  0.004   0.021  -0.001  -0.007   0.005   0.005   0.004  -0.008  -0.030   3.344   0.011  -0.041  -0.022  -0.001  -1.415  -0.005
 -0.001   0.004   0.002  -0.004   0.002  -0.002   0.006  -0.001   0.031   0.011   2.637  -0.043  -0.011  -0.013  -0.005  -1.194
 -0.012  -0.030   0.005  -0.007  -0.000  -0.007   0.013   0.005   0.036  -0.041  -0.043   3.345  -0.078  -0.016   0.019   0.019
  0.001   0.014   0.002   0.000  -0.002  -0.003  -0.000   0.001  -0.004  -0.022  -0.011  -0.078   2.649   0.002   0.009   0.004
  0.003   0.011   0.005  -0.003   0.005  -0.009   0.005  -0.004  -1.414  -0.001  -0.013  -0.016   0.002   0.610   0.005   0.005
 -0.003  -0.011   0.000   0.005  -0.003  -0.002  -0.003   0.005  -0.001  -1.415  -0.005   0.019   0.009   0.005   0.610   0.002
  0.001  -0.002  -0.001   0.003  -0.001   0.000  -0.003   0.001  -0.013  -0.005  -1.194   0.019   0.004   0.005   0.002   0.549
  0.010   0.007  -0.003   0.004  -0.000   0.004  -0.009  -0.001  -0.017   0.019   0.019  -1.418   0.034   0.008  -0.009  -0.008
 -0.001  -0.005  -0.001  -0.000   0.002   0.001   0.000  -0.001   0.002   0.010   0.004   0.035  -1.198  -0.001  -0.004  -0.001


------------------------ aborting loop because EDIFF is reached ----------------------------------------


    CHARGE:  cpu time      0.5869: real time      0.6672
    FORLOC:  cpu time      0.0140: real time      0.0141
    FORNL :  cpu time     16.0652: real time     16.5169
    STRESS:  cpu time     12.3140: real time     12.3582
    FORCOR:  cpu time      0.0393: real time      0.0394
    FORHAR:  cpu time      0.1328: real time      0.1335
    MIXING:  cpu time      0.1986: real time      0.1994
    OFIELD:  cpu time      0.0000: real time      0.0000

  FORCE on cell =-STRESS in cart. coord.  units (eV):
  Direction    XX          YY          ZZ          XY          YZ          ZX
  --------------------------------------------------------------------------------------
  Alpha Z  7188.25595  7188.25595  7188.25595
  Ewald  -28902.04637-28736.31386-28638.48123     1.70871     6.58305    47.03720
  Hartree  4852.81833  5019.25513  5120.53541     2.35579     4.50782    45.80226
  E(xc)   -3819.23228 -3819.25112 -3819.21750     0.00092     0.01697    -0.12181
  Local    6689.34710  6355.46868  6151.74788    -4.68411   -10.78993   -90.51186
  n-local -1375.60256 -1374.29039 -1377.33816    -1.84697     0.20649     0.04621
  augment  2177.46605  2177.72567  2178.60912     0.56571    -0.06816    -0.30610
  Kinetic 13090.31559 13091.21839 13099.33650     1.56118    -0.86510    -1.05562
  Fock        0.00000     0.00000     0.00000     0.00000     0.00000     0.00000
  -------------------------------------------------------------------------------------
  Total     -98.67818   -97.93155   -96.55202    -0.33876    -0.40885     0.89028
  in kB    -138.73756  -137.68783  -135.74826    -0.47628    -0.57483     1.25169
  external pressure =     -137.39 kB  Pullay stress =        0.00 kB


 VOLUME and BASIS-vectors are now :
 -----------------------------------------------------------------------------
  energy-cutoff  :      250.00
  volume of cell :     1139.56
      direct lattice vectors                 reciprocal lattice vectors
    13.160000000  0.000000000  0.000000000     0.075987842  0.000000000  0.000000000
     0.000000000 13.160000000  0.000000000     0.000000000  0.075987842  0.000000000
     0.000000000  0.000000000  6.580000000     0.000000000  0.000000000  0.151975684

  length of vectors
    13.160000000 13.160000000  6.580000000     0.075987842  0.075987842  0.151975684


 FORCES acting on ions
    electron-ion (+dipol)            ewald-force                    non-local-force                 convergence-correction
 -----------------------------------------------------------------------------------------------
   0.828E+02 0.126E+02 -.644E+01   -.826E+02 -.122E+02 0.624E+01   -.272E+00 -.281E+00 -.317E-01   0.249E-04 -.203E-04 0.397E-04
   -.421E+02 -.979E+02 0.485E+02   0.426E+02 0.977E+02 -.481E+02   -.365E+00 -.391E+00 -.607E-01   -.264E-04 -.544E-04 -.101E-04
   0.151E+03 -.530E+02 -.894E+00   -.150E+03 0.533E+02 0.915E+00   -.542E-01 -.326E+00 -.709E-01   0.388E-04 0.159E-04 -.535E-05
   -.524E+02 0.182E+02 -.304E+01   0.532E+02 -.183E+02 0.295E+01   -.326E+00 0.261E+00 0.128E+00   -.567E-04 0.368E-04 0.500E-04
   0.707E+01 -.355E+02 0.959E+01   -.683E+01 0.353E+02 -.933E+01   -.996E-01 -.127E-01 -.847E-01   0.409E-04 0.268E-04 0.424E-05
   -.944E+02 0.335E+02 -.370E+02   0.943E+02 -.336E+02 0.365E+02   -.285E+00 0.657E-01 0.103E+00   -.324E-04 0.219E-06 -.188E-04
   0.619E+02 -.955E+02 0.930E+01   -.624E+02 0.944E+02 -.908E+01   0.159E+00 0.150E+00 -.629E-01   -.408E-04 0.331E-04 -.157E-04
   -.927E+02 -.254E+02 0.203E+02   0.920E+02 0.256E+02 -.202E+02   0.365E+00 -.230E+00 -.733E-01   -.968E-04 0.243E-04 0.221E-04
   0.871E+02 0.784E+01 -.349E+02   -.872E+02 -.770E+01 0.345E+02   0.599E-01 0.110E+00 0.600E-01   -.392E-05 -.118E-03 0.295E-05
   -.417E+02 0.722E+02 0.817E+01   0.421E+02 -.713E+02 -.801E+01   0.784E-01 -.283E+00 0.418E-01   -.152E-04 0.239E-04 -.434E-05
   -.100E+03 0.162E+02 -.203E+02   0.997E+02 -.165E+02 0.202E+02   0.920E-01 0.340E+00 0.769E-01   -.407E-04 0.243E-04 -.222E-04
   -.788E+02 0.811E+02 -.286E+02   0.792E+02 -.803E+02 0.284E+02   -.373E+00 -.376E+00 0.477E-01   -.197E-04 0.102E-03 0.397E-04
   0.936E+01 0.474E+02 0.560E+02   -.990E+01 -.473E+02 -.555E+02   0.155E+00 0.130E+00 -.583E-01   -.495E-04 -.567E-04 -.186E-04
   -.430E+02 0.560E+02 -.913E+01   0.421E+02 -.559E+02 0.933E+01   0.432E-01 0.226E+00 -.879E-01   0.529E-04 0.100E-03 -.231E-04
   0.418E+02 -.271E+02 0.123E+01   -.425E+02 0.271E+02 -.122E+01   0.267E+00 0.187E+00 0.695E-02   0.250E-04 -.317E-05 -.168E-04
   -.715E+02 0.120E+02 0.536E+02   0.715E+02 -.124E+02 -.531E+02   -.634E-01 0.102E+00 -.675E-01   -.146E-04 -.247E-04 0.493E-05
   -.917E+02 -.310E+02 0.741E+02   0.917E+02 0.306E+02 -.736E+02   -.254E-01 0.181E+00 0.210E-01   0.324E-06 -.880E-04 -.716E-05
   -.124E+02 0.114E+03 -.819E+01   0.125E+02 -.113E+03 0.801E+01   0.664E-01 0.217E+00 -.542E-01   -.160E-04 0.214E-04 0.257E-05
   -.787E+02 0.107E+02 0.370E+02   0.784E+02 -.108E+02 -.365E+02   -.231E+00 0.970E-02 -.777E-01   -.246E-04 0.192E-05 0.199E-04
   -.675E+02 0.862E+02 0.181E+02   0.671E+02 -.862E+02 -.177E+02   0.278E+00 0.267E+00 -.552E-01   -.105E-03 0.943E-04 -.516E-04
   0.348E+02 0.211E+02 -.201E+01   -.355E+02 -.212E+02 0.202E+01   0.686E-01 0.416E-01 -.309E-01   0.488E-04 -.582E-04 0.395E-04
   -.119E+02 -.325E+02 0.311E+02   0.117E+02 0.325E+02 -.306E+02   -.338E-01 -.167E+00 -.622E-02   -.370E-04 -.103E-03 -.926E-05
   -.355E+02 0.504E+02 0.994E+01   0.349E+02 -.500E+02 -.101E+02   0.182E+00 -.316E-01 -.306E-01   0.489E-04 0.116E-03 0.202E-04
   -.383E+02 -.441E+02 0.289E+02   0.381E+02 0.448E+02 -.287E+02   0.738E-01 -.429E+00 0.176E-01   -.165E-05 0.347E-04 -.327E-04
   0.274E+02 0.353E+02 0.837E+01   -.279E+02 -.354E+02 -.858E+01   0.373E+00 0.217E-01 0.550E-01   0.107E-03 -.801E-04 -.383E-04
   0.437E+02 -.539E+02 -.132E+01   -.444E+02 0.537E+02 0.131E+01   0.199E+00 0.834E-01 0.108E-01   0.501E-04 -.744E-05 0.171E-04
   -.484E+02 -.233E+02 -.289E+02   0.486E+02 0.235E+02 0.287E+02   -.369E+00 -.935E-01 -.279E-01   0.563E-05 0.351E-04 0.365E-04
   0.101E+02 -.173E+02 -.102E+02   -.994E+01 0.167E+02 0.101E+02   -.133E-01 0.301E+00 0.730E-02   0.349E-04 0.347E-04 -.458E-05
   -.142E+03 -.463E+02 0.267E+02   0.142E+03 0.465E+02 -.264E+02   -.448E+00 -.181E+00 -.597E-01   -.131E-03 -.131E-04 0.398E-04
   0.152E+03 -.665E+02 -.725E+01   -.153E+03 0.663E+02 0.710E+01   0.559E+00 -.958E-01 0.604E-02   0.189E-03 0.971E-04 -.169E-04
   0.307E+01 0.269E+02 0.193E+01   -.355E+01 -.272E+02 -.202E+01   0.114E+00 0.383E+00 0.916E-01   0.307E-04 -.200E-04 -.400E-04
   0.117E+03 -.560E+01 -.509E+02   -.117E+03 0.583E+01 0.507E+02   0.165E+00 -.520E-01 -.371E-01   0.758E-04 0.113E-04 -.239E-05
   -.466E+02 -.813E+02 -.521E+02   0.471E+02 0.810E+02 0.518E+02   -.388E+00 0.238E+00 -.118E-01   -.743E-04 -.116E-03 0.158E-04
   0.109E+03 -.112E+02 0.508E+02   -.109E+03 0.118E+02 -.507E+02   -.182E+00 -.445E+00 0.223E-01   0.136E-03 -.189E-04 0.319E-05
   0.746E+02 0.245E+02 0.296E+02   -.748E+02 -.245E+02 -.292E+02   0.216E+00 -.105E+00 0.115E-01   -.195E-04 -.871E-04 -.709E-05
   -.115E+03 -.450E+02 -.386E+00   0.114E+03 0.444E+02 0.386E+00   -.106E+00 -.551E-01 0.889E-01   -.398E-04 0.147E-04 0.158E-04
   0.338E+02 -.933E+02 -.796E+01   -.342E+02 0.923E+02 0.768E+01   -.132E+00 0.153E+00 0.360E-01   -.184E-04 0.300E-04 0.147E-04
   -.373E+02 0.296E+02 -.454E+02   0.370E+02 -.305E+02 0.449E+02   0.299E+00 0.232E+00 -.595E-01   -.620E-04 0.179E-06 0.413E-05
   0.122E+03 0.198E+02 0.139E+02   -.122E+03 -.196E+02 -.139E+02   0.178E+00 0.284E+00 -.445E-01   0.773E-04 0.370E-04 0.251E-04
   -.466E+02 0.219E+02 -.813E+01   0.472E+02 -.212E+02 0.794E+01   -.241E+00 -.239E+00 -.315E-01   -.825E-05 0.819E-05 0.125E-04
   0.561E+02 0.532E+01 0.590E+01   -.556E+02 -.634E+01 -.614E+01   -.580E-01 0.275E+00 0.486E-01   0.328E-04 0.310E-04 -.432E-04
   0.577E+02 -.162E+01 0.545E+01   -.576E+02 0.210E+01 -.528E+01   -.890E-01 -.185E+00 0.111E+00   0.108E-04 -.178E-05 -.387E-04
   0.123E+03 -.581E+01 -.139E+02   -.123E+03 0.655E+01 0.139E+02   0.280E+00 -.192E+00 0.302E-01   0.111E-03 0.141E-04 -.272E-04
   -.655E+02 0.875E+02 0.242E+02   0.660E+02 -.870E+02 -.240E+02   -.315E+00 0.463E+00 0.717E-02   -.570E-05 0.723E-05 -.376E-04
   -.528E+02 -.611E+02 -.387E+02   0.522E+02 0.617E+02 0.381E+02   0.152E+00 -.255E+00 -.419E-01   -.155E-04 -.590E-04 0.669E-04
   -.116E+02 -.335E+02 -.248E+02   0.112E+02 0.335E+02 0.240E+02   0.521E-01 -.388E+00 0.690E-01   -.437E-04 -.873E-04 0.165E-04
   0.797E+01 0.264E+02 -.649E+01   -.848E+01 -.271E+02 0.674E+01   0.275E+00 0.350E+00 -.463E-01   0.663E-04 -.808E-04 0.363E-04
   -.454E+02 0.207E+02 0.814E+01   0.461E+02 -.205E+02 -.794E+01   -.334E+00 0.479E-01 0.405E-01   -.346E-04 0.468E-05 -.155E-04
   -.374E+00 -.290E+02 0.976E+01   0.611E+00 0.288E+02 -.996E+01   0.116E+00 0.838E-02 -.104E-02   0.734E-05 -.696E-04 0.463E-04
   -.302E+02 -.381E+02 -.126E+02   0.306E+02 0.379E+02 0.127E+02   -.264E+00 -.207E-01 0.800E-01   0.728E-04 -.482E-04 -.487E-04
   -.779E+02 0.728E+02 -.180E+02   0.779E+02 -.728E+02 0.177E+02   -.549E-01 0.506E+00 -.977E-01   -.889E-04 0.766E-04 0.485E-04
   0.105E+03 0.492E+01 -.761E+01   -.105E+03 -.576E+01 0.781E+01   0.388E+00 0.175E+00 0.424E-01   0.407E-05 0.397E-04 0.566E-04
   0.369E+02 0.735E+02 -.207E+02   -.372E+02 -.732E+02 0.207E+02   0.329E+00 0.246E+00 0.151E-01   0.357E-04 0.979E-04 -.536E-04
   -.332E+02 0.274E+02 0.324E+01   0.336E+02 -.275E+02 -.317E+01   0.187E+00 0.169E-01 -.282E-01   -.726E-04 0.108E-03 -.644E-04
   -.162E+03 -.581E+02 0.534E+00   0.163E+03 0.578E+02 -.492E+00   -.486E+00 -.173E+00 -.585E-01   -.852E-04 0.335E-04 -.204E-04
   -.141E+03 -.212E+02 -.266E+02   0.141E+03 0.210E+02 0.264E+02   -.136E+00 -.638E-01 -.561E-01   -.881E-04 0.325E-04 -.394E-04
   0.151E+03 -.593E+02 0.979E+00   -.151E+03 0.597E+02 -.985E+00   0.737E-01 -.351E+00 0.237E-01   0.622E-04 -.107E-05 0.977E-05
   0.135E+03 -.653E+02 0.719E+01   -.135E+03 0.651E+02 -.710E+01   0.192E+00 -.323E-01 0.104E+00   0.186E-03 0.125E-03 0.220E-04
   0.121E+03 0.597E+02 0.263E+02   -.121E+03 -.600E+02 -.264E+02   -.218E+00 0.371E+00 -.356E-01   -.936E-05 -.771E-04 -.258E-04
   -.831E+02 -.252E+02 -.795E+02   0.832E+02 0.252E+02 0.792E+02   -.203E-01 -.425E+00 -.125E+00   -.223E-04 -.457E-04 0.453E-05
   0.356E+02 0.963E+02 0.206E+02   -.359E+02 -.961E+02 -.207E+02   0.334E+00 0.360E-01 0.661E-02   -.135E-04 0.133E-03 0.548E-04
   -.101E+03 -.646E+02 0.489E+02   0.101E+03 0.651E+02 -.485E+02   -.424E+00 -.360E+00 0.164E+00   0.364E-05 -.654E-04 -.844E-04
   0.398E+02 0.497E+02 -.601E+02   -.405E+02 -.497E+02 0.598E+02   0.267E+00 0.667E-01 -.127E+00   -.687E-04 -.637E-04 0.192E-04
   0.151E+03 0.270E+02 -.263E+02   -.151E+03 -.266E+02 0.264E+02   0.198E+00 -.267E+00 0.413E-01   -.509E-04 -.105E-03 0.255E-04
 -----------------------------------------------------------------------------------------------
   -.426E+00 -.399E-01 0.127E+00   -.909E-12 0.284E-12 0.711E-13   0.426E+00 0.398E-01 -.127E+00   0.461E-04 0.529E-04 -.642E-05
 
 
 POSITION                                       TOTAL-FORCE (eV/Angst)
 -----------------------------------------------------------------------------------
      8.22500     11.51500      4.93500        -0.055862      0.081464     -0.234161
      1.64500      8.22500      4.93500         0.096778     -0.608822      0.278331
      9.87000      3.29000      0.00000         0.935526      0.009952     -0.049558
      1.64500      4.93500      1.64500         0.411348      0.111833      0.031344
      6.58000      9.87000      0.00000         0.137706     -0.277081      0.175527
      0.00000      0.00000      3.29000        -0.431415     -0.021719     -0.382590
      8.22500      4.93500      1.64500        -0.288562     -0.891029      0.158549
      4.93500      8.22500      4.93500        -0.317188     -0.001330     -0.017014
      8.22500      1.64500      4.93500        -0.037963      0.245529     -0.385829
      4.93500      1.64500      1.64500         0.464777      0.686117      0.199860
      4.93500      8.22500      1.64500        -0.349056      0.038044      0.022103
      1.64500      1.64500      1.64500         0.063280      0.457004     -0.214625
     11.51500     11.51500      4.93500        -0.388755      0.175073      0.435627
      0.00000      3.29000      3.29000        -0.791350      0.350842      0.119926
      0.00000      6.58000      0.00000        -0.418838      0.217602      0.020500
      3.29000      0.00000      0.00000         0.014933     -0.280513      0.457029
      1.64500     11.51500      4.93500         0.048614     -0.243951      0.515687
      4.93500      1.64500      4.93500         0.167012      0.696257     -0.232556
      0.00000      0.00000      0.00000        -0.534108     -0.095139      0.413495
      3.29000      3.29000      3.29000        -0.147311      0.315233      0.322368
     11.51500      1.64500      1.64500        -0.588665     -0.001099     -0.019942
      0.00000      9.87000      0.00000        -0.217504     -0.171357      0.453707
      0.00000      3.29000      0.00000        -0.414232      0.305662     -0.138311
      6.58000      3.29000      3.29000        -0.078389      0.301734      0.228795
      6.58000      0.00000      3.29000        -0.160400     -0.140409     -0.155178
      0.00000      6.58000      3.29000        -0.438771     -0.061720      0.003014
      6.58000      3.29000      0.00000        -0.238188      0.183731     -0.193590
      6.58000      9.87000      3.29000         0.190726     -0.283477     -0.186050
      3.29000      6.58000      3.29000        -0.098531     -0.022399      0.184365
     11.51500      4.93500      4.93500         0.268056     -0.295525     -0.144430
     11.51500      1.64500      4.93500        -0.363312      0.042298      0.002074
     11.51500      8.22500      1.64500         0.184201      0.172716     -0.190442
      1.64500      8.22500      1.64500         0.121364     -0.079424     -0.232806
     11.51500      8.22500      4.93500         0.201355      0.142737      0.165173
      8.22500      1.64500      1.64500        -0.007377     -0.142665      0.473003
      4.93500      4.93500      1.64500        -0.591615     -0.608377      0.089430
      8.22500      4.93500      4.93500        -0.453648     -0.823325     -0.235272
      3.29000      0.00000      3.29000        -0.004691     -0.643735     -0.542281
      9.87000      6.58000      0.00000         0.631161      0.470769      0.007634
      6.58000      6.58000      0.00000         0.294844      0.406998     -0.218014
      9.87000      9.87000      3.29000         0.471338     -0.749730     -0.187679
      8.22500     11.51500      1.64500         0.060150      0.293031      0.288503
      9.87000      6.58000      3.29000         0.408722      0.539385     -0.001042
      1.64500      1.64500      4.93500         0.222872      0.988666      0.221443
      3.29000      9.87000      3.29000        -0.448998      0.299543     -0.713316
      0.00000      9.87000      3.29000        -0.291009     -0.404834     -0.645356
      6.58000      0.00000      0.00000        -0.237665     -0.312109      0.204854
      6.58000      6.58000      3.29000         0.363962      0.227589      0.234405
      4.93500     11.51500      4.93500         0.352869     -0.192915     -0.201398
      4.93500     11.51500      1.64500         0.152843     -0.177778      0.132850
      3.29000      3.29000      0.00000        -0.081285      0.558100     -0.394235
      9.87000      9.87000      0.00000         0.234107     -0.661842      0.238934
      8.22500      8.22500      1.64500         0.073015      0.638666     -0.014247
      1.64500      4.93500      4.93500         0.596011     -0.048163      0.040644
      4.93500      4.93500      4.93500        -0.441274     -0.503978     -0.016490
      3.29000      6.58000      0.00000        -0.320525     -0.242980     -0.199182
      9.87000      3.29000      3.29000         0.988132      0.035486      0.016959
     11.51500      4.93500      1.64500         0.382758     -0.275970      0.199649
      9.87000      0.00000      3.29000         0.597145      0.116485     -0.185904
      1.64500     11.51500      1.64500         0.054129     -0.445879     -0.411161
      8.22500      8.22500      4.93500         0.006008      0.306543      0.001117
      3.29000      9.87000      0.00000        -0.236924      0.104471      0.610472
     11.51500     11.51500      1.64500        -0.421004      0.053663     -0.406341
      9.87000      0.00000      0.00000         0.698673      0.136048      0.201631
 -----------------------------------------------------------------------------------
    total drift:                                0.000190     -0.000045      0.000026


--------------------------------------------------------------------------------------------------------



  FREE ENERGIE OF THE ION-ELECTRON SYSTEM (eV)
  ---------------------------------------------------
  free  energy   TOTEN  =      -732.33093372 eV

  energy  without entropy=     -732.32241479  energy(sigma->0) =     -732.32667425
 


--------------------------------------------------------------------------------------------------------


    POTLOK:  cpu time      0.0234: real time      0.0236


--------------------------------------------------------------------------------------------------------


     LOOP+:  cpu time   1065.7399: real time   1090.1949
    4ORBIT:  cpu time      0.0000: real time      0.0000

 total amount of memory used by VASP MPI-rank0    90992. kBytes
=======================================================================

   base      :      30000. kBytes
   nonl-proj :      12216. kBytes
   fftplans  :       1504. kBytes
   grid      :       2835. kBytes
   one-center:         93. kBytes
   wavefun   :      44344. kBytes
 
  
  
 General timing and accounting informations for this job:
 ========================================================
  
                  Total CPU time used (sec):     1111.575
                            User time (sec):     1098.765
                          System time (sec):       12.809
                         Elapsed time (sec):     1139.886
  
                   Maximum memory used (kb):      151100.
                   Average memory used (kb):          N/A
  
                          Minor page faults:        17645
                          Major page faults:            0
                 Voluntary context switches:          272
