 vasp.6.3.1 04May22 (build Jul 26 2022 04:02:40) complex                        
  
 executed on             LinuxIFC date 2023.11.30  02:05:37
 running on   48 total cores
 distrk:  each k-point on   48 cores,    1 groups
 distr:  one band on NCORE=  12 cores,    4 groups


--------------------------------------------------------------------------------------------------------


 INCAR:
   ISTART = 0
   NWRITE = 2
   PREC = Accurate
   ENCUT = 250
   GGA = PE
   NSW = 0
   ISIF = 2
   ISYM = 2
   NBLOCK = 1
   KBLOCK = 1
   IBRION = -1
   NELM = 80
   EDIFF = 1E-08
   EDIFFG = -0.01
   ALGO = Normal
   LDIAG = .TRUE.
   LREAL = .FALSE.
   ISMEAR = 0
   SIGMA = 0.02
   ICHARG = 2
   LPLANE = .TRUE.
   NPAR = 4
   LSCALU = .FALSE.
   NSIM = 4
   LWAVE = .FALSE.
   LCHARG = .FALSE.
   ICORELEVEL = 1

 POTCAR:    PAW_PBE Nb_sv 25May2007               
 POTCAR:    PAW_PBE Mo_sv 02Feb2006               
 POTCAR:    PAW_PBE Ta_pv 07Sep2000               
 POTCAR:    PAW_PBE W_sv 04Sep2015                
 POTCAR:    PAW_PBE Nb_sv 25May2007               
   SHA256 =  0e8fc07c9fcd1164cf2ade22d0399fd28f85e91cd773dfa6cf24839a48c95e24 Nb_sv/POTCAR          
   COPYR  = (c) Copyright 25May2007 Georg Kresse                                                    
   COPYR  = This file is part of the software VASP. Any use, copying, and all other rights are regul
   COPYR  = If you do not have a valid VASP license, you may not use, copy or distribute this file. 
   VRHFIN =Nb: 4p5s4d                                                                               
   LEXCH  = PE                                                                                      
   EATOM  =  1555.1913 eV,  114.3033 Ry                                                             
                                                                                                    
   TITEL  = PAW_PBE Nb_sv 25May2007                                                                 
   LULTRA =        F    use ultrasoft PP ?                                                          
   IUNSCR =        1    unscreen: 0-lin 1-nonlin 2-no                                               
   RPACOR =    1.800    partial core radius                                                         
   POMASS =   92.910; ZVAL   =   13.000    mass and valenz                                          
   RCORE  =    2.400    outmost cutoff radius                                                       
   RWIGS  =    2.400; RWIGS  =    1.270    wigner-seitz radius (au A)                               
   ENMAX  =  293.235; ENMIN  =  219.927 eV                                                          
   ICORE  =        3    local potential                                                             
   LCOR   =        T    correct aug charges                                                         
   LPAW   =        T    paw PP                                                                      
   EAUG   =  455.659                                                                                
   DEXC   =    0.000                                                                                
   RMAX   =    2.456    core radius for proj-oper                                                   
   RAUG   =    1.300    factor for augmentation sphere                                              
   RDEP   =    2.451    radius for radial grids                                                     
   RDEPT  =    1.956    core radius for aug-charge                                                  
                                                                                                    
   Atomic configuration                                                                             
   11 entries                                                                                       
     n  l   j            E        occ.                                                              
     1  0  0.50    -18805.2457   2.0000                                                             
     2  0  0.50     -2630.2869   2.0000                                                             
     2  1  1.50     -2348.4046   6.0000                                                             
     3  0  0.50      -438.8757   2.0000                                                             
     3  1  1.50      -346.7588   6.0000                                                             
     3  2  2.50      -196.2560  10.0000                                                             
     4  0  0.50       -58.3859   2.0000                                                             
     5  0  0.50        -3.9816   1.0000                                                             
     4  1  1.50       -34.5141   6.0000                                                             
     4  2  2.50        -3.0408   4.0000                                                             
     4  3  2.50        -1.3606   0.0000                                                             
   Description                                                                                      
     l       E           TYP  RCUT    TYP  RCUT                                                     
     0    -58.3859094     23  2.200                                                                 
     0     -3.9816262     23  2.200                                                                 
     1    -34.5140738     23  2.200                                                                 
     1     13.6058260     23  2.200                                                                 
     2     -3.0408010     23  2.200                                                                 
     2     -0.1283038     23  2.200                                                                 
     3     -1.3605826     23  2.400                                                                 
  local pseudopotential read in
  partial core-charges read in
  partial kinetic energy density read in
  atomic valenz-charges read in
  non local Contribution for L=           0  read in
    real space projection operators read in
  non local Contribution for L=           0  read in
    real space projection operators read in
  non local Contribution for L=           1  read in
    real space projection operators read in
  non local Contribution for L=           1  read in
    real space projection operators read in
  non local Contribution for L=           2  read in
    real space projection operators read in
  non local Contribution for L=           2  read in
    real space projection operators read in
    PAW grid and wavefunctions read in
 
   number of l-projection  operators is LMAX  =           6
   number of lm-projection operators is LMMAX =          18
 
 POTCAR:    PAW_PBE Mo_sv 02Feb2006               
   SHA256 =  2731df97e41766cc617548c5a8267718fdef1f509ac6bafa01e745abea2bdfaa Mo_sv/POTCAR          
   COPYR  = (c) Copyright 02Feb2006 Georg Kresse                                                    
   COPYR  = This file is part of the software VASP. Any use, copying, and all other rights are regul
   COPYR  = If you do not have a valid VASP license, you may not use, copy or distribute this file. 
   VRHFIN =Mo: 4p5s4d                                                                               
   LEXCH  = PE                                                                                      
   EATOM  =  1862.2866 eV,  136.8742 Ry                                                             
                                                                                                    
   TITEL  = PAW_PBE Mo_sv 02Feb2006                                                                 
   LULTRA =        F    use ultrasoft PP ?                                                          
   IUNSCR =        1    unscreen: 0-lin 1-nonlin 2-no                                               
   RPACOR =    2.200    partial core radius                                                         
   POMASS =   95.940; ZVAL   =   14.000    mass and valenz                                          
   RCORE  =    2.500    outmost cutoff radius                                                       
   RWIGS  =    2.750; RWIGS  =    1.455    wigner-seitz radius (au A)                               
   ENMAX  =  242.676; ENMIN  =  182.007 eV                                                          
   ICORE  =        3    local potential                                                             
   LCOR   =        T    correct aug charges                                                         
   LPAW   =        T    paw PP                                                                      
   EAUG   =  446.014                                                                                
   DEXC   =    0.000                                                                                
   RMAX   =    2.563    core radius for proj-oper                                                   
   RAUG   =    1.300    factor for augmentation sphere                                              
   RDEP   =    2.641    radius for radial grids                                                     
   RDEPT  =    2.031    core radius for aug-charge                                                  
                                                                                                    
   Atomic configuration                                                                             
   11 entries                                                                                       
     n  l   j            E        occ.                                                              
     1  0  0.50    -19819.0341   2.0000                                                             
     2  0  0.50     -2799.0127   2.0000                                                             
     2  1  1.50     -2502.0276   6.0000                                                             
     3  0  0.50      -476.4449   2.0000                                                             
     3  1  1.50      -379.1496   6.0000                                                             
     3  2  2.50      -220.9367  10.0000                                                             
     4  0  0.50       -64.3378   2.0000                                                             
     5  0  0.50        -4.0862   1.0000                                                             
     4  1  1.50       -38.4773   6.0000                                                             
     4  2  2.50        -3.7535   5.0000                                                             
     4  3  2.50        -1.3606   0.0000                                                             
   Description                                                                                      
     l       E           TYP  RCUT    TYP  RCUT                                                     
     0    -64.3377829     23  2.100                                                                 
     0     -4.0861640     23  2.400                                                                 
     1    -38.4772993     23  2.100                                                                 
     1     13.6058260     23  2.100                                                                 
     2     -3.7534941     23  2.400                                                                 
     2     -5.1140767     23  2.400                                                                 
     3     -4.0817478     23  2.500                                                                 
  local pseudopotential read in
  partial core-charges read in
  partial kinetic energy density read in
  atomic valenz-charges read in
  non local Contribution for L=           0  read in
    real space projection operators read in
  non local Contribution for L=           0  read in
    real space projection operators read in
  non local Contribution for L=           1  read in
    real space projection operators read in
  non local Contribution for L=           1  read in
    real space projection operators read in
  non local Contribution for L=           2  read in
    real space projection operators read in
  non local Contribution for L=           2  read in
    real space projection operators read in
    PAW grid and wavefunctions read in
 
   number of l-projection  operators is LMAX  =           6
   number of lm-projection operators is LMMAX =          18
 
 POTCAR:    PAW_PBE Ta_pv 07Sep2000               
   SHA256 =  00d0a14a36c127416459414afb8617d9754996fffa60a2465888e660b20a452f Ta_pv/POTCAR          
   COPYR  = (c) Copyright 07Sep2000 Georg Kresse                                                    
   COPYR  = This file is part of the software VASP. Any use, copying, and all other rights are regul
   COPYR  = If you do not have a valid VASP license, you may not use, copy or distribute this file. 
   VRHFIN =Ta:  5p6s5d                                                                              
   LEXCH  = PE                                                                                      
   EATOM  =  1047.1984 eV,   76.9669 Ry                                                             
                                                                                                    
   TITEL  = PAW_PBE Ta_pv 07Sep2000                                                                 
   LULTRA =        F    use ultrasoft PP ?                                                          
   IUNSCR =        1    unscreen: 0-lin 1-nonlin 2-no                                               
   RPACOR =    2.330    partial core radius                                                         
   POMASS =  180.948; ZVAL   =   11.000    mass and valenz                                          
   RCORE  =    2.500    outmost cutoff radius                                                       
   RWIGS  =    2.840; RWIGS  =    1.503    wigner-seitz radius (au A)                               
   ENMAX  =  223.667; ENMIN  =  167.750 eV                                                          
   RCLOC  =    2.205    cutoff for local pot                                                        
   LCOR   =        T    correct aug charges                                                         
   LPAW   =        T    paw PP                                                                      
   EAUG   =  377.421                                                                                
   DEXC   =    0.000                                                                                
   RMAX   =    2.551    core radius for proj-oper                                                   
   RAUG   =    1.300    factor for augmentation sphere                                              
   RDEP   =    2.526    radius for radial grids                                                     
   RDEPT  =    2.132    core radius for aug-charge                                                  
                                                                                                    
   Atomic configuration                                                                             
   15 entries                                                                                       
     n  l   j            E        occ.                                                              
     1  0  0.50    -67341.2801   2.0000                                                             
     2  0  0.50    -11566.9369   2.0000                                                             
     2  1  1.50    -10134.1175   6.0000                                                             
     3  0  0.50     -2648.5614   2.0000                                                             
     3  1  1.50     -2222.6006   6.0000                                                             
     3  2  2.50     -1726.3114  10.0000                                                             
     4  0  0.50      -538.6957   2.0000                                                             
     4  1  1.50      -399.0125   6.0000                                                             
     4  2  2.50      -220.3955  10.0000                                                             
     4  3  3.50       -23.0371  14.0000                                                             
     5  0  0.50       -71.2900   2.0000                                                             
     5  1  1.50       -37.8224   6.0000                                                             
     5  2  2.50        -2.6455   4.0000                                                             
     6  0  0.50        -4.9623   1.0000                                                             
     5  3  2.50        -1.3606   0.0000                                                             
   Description                                                                                      
     l       E           TYP  RCUT    TYP  RCUT                                                     
     1    -37.8224449     23  2.500                                                                 
     1      1.3605826     23  2.500                                                                 
     2     -2.6454718     23  2.500                                                                 
     2     -0.6258570     23  2.500                                                                 
     0     -4.9622674     23  2.500                                                                 
     0      4.7531427     23  2.500                                                                 
  local pseudopotential read in
  partial core-charges read in
  partial kinetic energy density read in
  atomic valenz-charges read in
  non local Contribution for L=           1  read in
    real space projection operators read in
  non local Contribution for L=           1  read in
    real space projection operators read in
  non local Contribution for L=           2  read in
    real space projection operators read in
  non local Contribution for L=           2  read in
    real space projection operators read in
  non local Contribution for L=           0  read in
    real space projection operators read in
  non local Contribution for L=           0  read in
    real space projection operators read in
    PAW grid and wavefunctions read in
 
   number of l-projection  operators is LMAX  =           6
   number of lm-projection operators is LMMAX =          18
 
 POTCAR:    PAW_PBE W_sv 04Sep2015                
   SHA256 =  931c2d770f65867ef30f3db3421922900fc0890ebac5c3e12f63b6a2064023d7 W_sv/POTCAR           
   COPYR  = (c) Copyright 04Sep2015 Georg Kresse                                                    
   COPYR  = This file is part of the software VASP. Any use, copying, and all other rights are regul
   COPYR  = If you do not have a valid VASP license, you may not use, copy or distribute this file. 
   VRHFIN =W : 5p6s5d                                                                               
   LEXCH  = PE                                                                                      
   EATOM  =  1865.5791 eV,  137.1162 Ry                                                             
                                                                                                    
   TITEL  = PAW_PBE W_sv 04Sep2015                                                                  
   LULTRA =        F    use ultrasoft PP ?                                                          
   IUNSCR =        1    unscreen: 0-lin 1-nonlin 2-no                                               
   RPACOR =    2.330    partial core radius                                                         
   POMASS =  183.850; ZVAL   =   14.000    mass and valenz                                          
   RCORE  =    2.500    outmost cutoff radius                                                       
   RWIGS  =    2.750; RWIGS  =    1.455    wigner-seitz radius (au A)                               
   ENMAX  =  223.057; ENMIN  =  167.293 eV                                                          
   ICORE  =        3    local potential                                                             
   LCOR   =        T    correct aug charges                                                         
   LPAW   =        T    paw PP                                                                      
   EAUG   =  373.438                                                                                
   DEXC   =    0.000                                                                                
   RMAX   =    2.565    core radius for proj-oper                                                   
   RAUG   =    1.300    factor for augmentation sphere                                              
   RDEP   =    2.539    radius for radial grids                                                     
   RDEPT  =    2.126    core radius for aug-charge                                                  
                                                                                                    
   Atomic configuration                                                                             
   15 entries                                                                                       
     n  l   j            E        occ.                                                              
     1  0  0.50    -69465.5834   2.0000                                                             
     2  0  0.50    -11986.2640   2.0000                                                             
     2  1  1.50    -10479.8613   6.0000                                                             
     3  0  0.50     -2759.0756   2.0000                                                             
     3  1  1.50     -2313.1855   6.0000                                                             
     3  2  2.50     -1801.1183  10.0000                                                             
     4  0  0.50      -567.6789   2.0000                                                             
     4  1  1.50      -421.4692   6.0000                                                             
     4  2  2.50      -236.3471  10.0000                                                             
     4  3  3.50       -31.2665  14.0000                                                             
     5  0  0.50       -77.1084   2.0000                                                             
     6  0  0.50        -5.1438   1.0000                                                             
     5  1  1.50       -41.3856   6.0000                                                             
     5  2  2.50        -3.3185   5.0000                                                             
     5  3  2.50        -1.3606   0.0000                                                             
   Description                                                                                      
     l       E           TYP  RCUT    TYP  RCUT                                                     
     0    -77.1084470     23  2.100                                                                 
     0     -5.1437956     23  2.300                                                                 
     1    -41.3855615     23  2.500                                                                 
     1     -2.7211652     23  2.500                                                                 
     2     -3.3185025     23  2.500                                                                 
     2     -1.5965151     23  2.500                                                                 
     3     -1.3605826     23  2.500                                                                 
  local pseudopotential read in
  partial core-charges read in
  partial kinetic energy density read in
  kinetic energy density of atom read in
  atomic valenz-charges read in
  non local Contribution for L=           0  read in
    real space projection operators read in
  non local Contribution for L=           0  read in
    real space projection operators read in
  non local Contribution for L=           1  read in
    real space projection operators read in
  non local Contribution for L=           1  read in
    real space projection operators read in
  non local Contribution for L=           2  read in
    real space projection operators read in
  non local Contribution for L=           2  read in
    real space projection operators read in
    PAW grid and wavefunctions read in
 
   number of l-projection  operators is LMAX  =           6
   number of lm-projection operators is LMMAX =          18
 
  PAW_PBE Nb_sv 25May2007               :
 energy of atom  1       EATOM=-1555.1913
 kinetic energy error for atom=    0.2155 (will be added to EATOM!!)
  PAW_PBE Mo_sv 02Feb2006               :
 energy of atom  2       EATOM=-1862.2866
 kinetic energy error for atom=    0.1102 (will be added to EATOM!!)
  PAW_PBE Ta_pv 07Sep2000               :
 energy of atom  3       EATOM=-1047.1984
 kinetic energy error for atom=    0.0394 (will be added to EATOM!!)
  PAW_PBE W_sv 04Sep2015                :
 energy of atom  4       EATOM=-1865.5791
 kinetic energy error for atom=    0.0589 (will be added to EATOM!!)
 
 
 POSCAR: Nb-Mo-Ta-W alloy
  positions in direct lattice
  No initial velocities read in
 exchange correlation table for  LEXCH =        8
   RHO(1)=    0.500       N(1)  =     2000
   RHO(2)=  100.500       N(2)  =     4000
 


--------------------------------------------------------------------------------------------------------


 ion  position               nearest neighbor table
   1  0.500  0.500  0.500-   2 2.85   3 2.85   4 2.85   6 2.85   9 2.85  12 2.85  14 2.85  16 2.85
                            11 3.29  15 3.29  10 3.29  15 3.29  11 3.29  10 3.29
   2  0.250  0.250  0.750-   1 2.85   5 2.85   7 2.85   8 2.85  10 2.85  11 2.85  13 2.85  15 2.85
                            14 3.29  14 3.29
   3  0.250  0.750  0.250-   1 2.85   5 2.85   7 2.85   8 2.85  10 2.85  11 2.85  13 2.85  15 2.85
                            14 3.29  14 3.29
   4  0.750  0.750  0.250-   1 2.85   5 2.85   7 2.85   8 2.85  10 2.85  11 2.85  13 2.85  15 2.85
                             9 3.29  12 3.29   9 3.29  12 3.29
   5  0.000  0.000  0.500-   2 2.85   3 2.85   4 2.85   6 2.85   9 2.85  12 2.85  14 2.85  16 2.85
                             8 3.29  10 3.29  11 3.29   8 3.29  10 3.29  11 3.29
   6  0.750  0.250  0.750-   1 2.85   5 2.85   7 2.85   8 2.85  10 2.85  11 2.85  13 2.85  15 2.85
                             9 3.29  12 3.29  12 3.29   9 3.29
   7  0.000  0.500  0.000-   2 2.85   3 2.85   4 2.85   6 2.85   9 2.85  12 2.85  14 2.85  16 2.85
                            10 3.29  15 3.29   8 3.29  10 3.29   8 3.29  15 3.29
   8  0.000  0.000  0.000-   2 2.85   3 2.85   4 2.85   6 2.85   9 2.85  12 2.85  14 2.85  16 2.85
                            13 3.29   5 3.29   7 3.29   5 3.29   7 3.29  13 3.29
   9  0.750  0.750  0.750-   1 2.85   5 2.85   7 2.85   8 2.85  10 2.85  11 2.85  13 2.85  15 2.85
                             4 3.29  14 3.29   6 3.29   4 3.29   6 3.29  14 3.29
  10  0.000  0.500  0.500-   2 2.85   3 2.85   4 2.85   6 2.85   9 2.85  12 2.85  14 2.85  16 2.85
                             1 3.29   7 3.29   5 3.29   7 3.29   5 3.29   1 3.29
  11  0.500  0.000  0.500-   2 2.85   3 2.85   4 2.85   6 2.85   9 2.85  12 2.85  14 2.85  16 2.85
                            13 3.29   5 3.29   1 3.29  13 3.29   1 3.29   5 3.29
  12  0.750  0.250  0.250-   1 2.85   5 2.85   7 2.85   8 2.85  10 2.85  11 2.85  13 2.85  15 2.85
                             4 3.29   6 3.29  16 3.29   6 3.29   4 3.29  16 3.29
  13  0.500  0.000  0.000-   2 2.85   3 2.85   4 2.85   6 2.85   9 2.85  12 2.85  14 2.85  16 2.85
                            11 3.29  15 3.29   8 3.29  11 3.29  15 3.29   8 3.29
  14  0.250  0.750  0.750-   1 2.85   5 2.85   7 2.85   8 2.85  10 2.85  11 2.85  13 2.85  15 2.85
                             2 3.29   9 3.29   3 3.29   3 3.29   2 3.29   9 3.29
  15  0.500  0.500  0.000-   2 2.85   3 2.85   4 2.85   6 2.85   9 2.85  12 2.85  14 2.85  16 2.85
                            13 3.29   1 3.29   7 3.29   1 3.29  13 3.29   7 3.29
  16  0.250  0.250  0.250-   1 2.85   5 2.85   7 2.85   8 2.85  10 2.85  11 2.85  13 2.85  15 2.85
                            12 3.29  12 3.29
 
  LATTYP: Found a simple cubic cell.
 ALAT       =     6.5800000000
  
  Lattice vectors:
  
 A1 = (   6.5800000000,   0.0000000000,   0.0000000000)
 A2 = (   0.0000000000,   6.5800000000,   0.0000000000)
 A3 = (   0.0000000000,   0.0000000000,   6.5800000000)


Analysis of symmetry for initial positions (statically):
=====================================================================
 Subroutine PRICEL returns:
 Original cell was already a primitive cell.
 

 Routine SETGRP: Setting up the symmetry group for a 
 simple cubic supercell.


 Subroutine GETGRP returns: Found  1 space group operations
 (whereof  1 operations were pure point group operations)
 out of a pool of 48 trial point group operations.


The static configuration has the point symmetry C_1 .


Analysis of symmetry for dynamics (positions and initial velocities):
=====================================================================
 Subroutine PRICEL returns:
 Original cell was already a primitive cell.
 

 Routine SETGRP: Setting up the symmetry group for a 
 simple cubic supercell.


 Subroutine GETGRP returns: Found  1 space group operations
 (whereof  1 operations were pure point group operations)
 out of a pool of 48 trial point group operations.


The dynamic configuration has the point symmetry C_1 .


 Subroutine INISYM returns: Found  1 space group operations
 (whereof  1 operations are pure point group operations),
 and found     1 'primitive' translations


----------------------------------------------------------------------------------------

                                     Primitive cell                                     

  volume of cell :     284.8903

  direct lattice vectors                    reciprocal lattice vectors
     6.580000000  0.000000000  0.000000000     0.151975684  0.000000000  0.000000000
     0.000000000  6.580000000  0.000000000     0.000000000  0.151975684  0.000000000
     0.000000000  0.000000000  6.580000000     0.000000000  0.000000000  0.151975684

  length of vectors
     6.580000000  6.580000000  6.580000000     0.151975684  0.151975684  0.151975684

  position of ions in fractional coordinates (direct lattice)
     0.500000000  0.500000000  0.500000000
     0.250000000  0.250000000  0.750000000
     0.250000000  0.750000000  0.250000000
     0.750000000  0.750000000  0.250000000
     0.000000000  0.000000000  0.500000000
     0.750000000  0.250000000  0.750000000
     0.000000000  0.500000000  0.000000000
     0.000000000  0.000000000  0.000000000
     0.750000000  0.750000000  0.750000000
     0.000000000  0.500000000  0.500000000
     0.500000000  0.000000000  0.500000000
     0.750000000  0.250000000  0.250000000
     0.500000000  0.000000000  0.000000000
     0.250000000  0.750000000  0.750000000
     0.500000000  0.500000000  0.000000000
     0.250000000  0.250000000  0.250000000

  ion indices of the primitive-cell ions
   primitive index   ion index
                 1           1
                 2           2
                 3           3
                 4           4
                 5           5
                 6           6
                 7           7
                 8           8
                 9           9
                10          10
                11          11
                12          12
                13          13
                14          14
                15          15
                16          16

----------------------------------------------------------------------------------------

 
 
 KPOINTS: K-Spacing Value to Generate K-Mesh: 0.03

Automatic generation of k-mesh.
 Grid dimensions read from file:
 generate k-points for:    5    5    5

 Generating k-lattice:

  Cartesian coordinates                     Fractional coordinates (reciprocal lattice)
     0.030395137  0.000000000  0.000000000     0.200000000  0.000000000  0.000000000
     0.000000000  0.030395137  0.000000000     0.000000000  0.200000000  0.000000000
     0.000000000  0.000000000  0.030395137     0.000000000  0.000000000  0.200000000

  Length of vectors
     0.030395137  0.030395137  0.030395137

  Shift w.r.t. Gamma in fractional coordinates (k-lattice)
     0.000000000  0.000000000  0.000000000

 
 Subroutine IBZKPT returns following result:
 ===========================================
 
 Found     63 irreducible k-points:
 
 Following reciprocal coordinates:
            Coordinates               Weight
  0.000000  0.000000  0.000000      1.000000
  0.200000  0.000000  0.000000      2.000000
  0.000000  0.200000  0.000000      2.000000
  0.000000  0.000000  0.200000      2.000000
  0.400000  0.000000  0.000000      2.000000
  0.000000  0.400000  0.000000      2.000000
  0.000000  0.000000  0.400000      2.000000
  0.200000  0.200000  0.000000      2.000000
  0.000000  0.200000  0.200000      2.000000
  0.200000  0.000000  0.200000      2.000000
 -0.200000  0.200000  0.000000      2.000000
 -0.200000  0.000000  0.200000      2.000000
  0.000000 -0.200000  0.200000      2.000000
  0.400000  0.200000  0.000000      2.000000
  0.000000  0.400000  0.200000      2.000000
  0.200000  0.000000  0.400000      2.000000
 -0.200000  0.400000  0.000000      2.000000
 -0.400000  0.000000  0.200000      2.000000
  0.000000  0.200000  0.400000      2.000000
  0.000000 -0.400000  0.200000      2.000000
 -0.200000  0.000000  0.400000      2.000000
  0.400000  0.000000  0.200000      2.000000
  0.000000 -0.200000  0.400000      2.000000
  0.400000 -0.200000  0.000000      2.000000
  0.200000  0.400000  0.000000      2.000000
  0.400000  0.400000  0.000000      2.000000
  0.000000  0.400000  0.400000      2.000000
  0.400000  0.000000  0.400000      2.000000
 -0.400000  0.400000  0.000000      2.000000
 -0.400000  0.000000  0.400000      2.000000
  0.000000 -0.400000  0.400000      2.000000
  0.200000  0.200000  0.200000      2.000000
 -0.200000  0.200000  0.200000      2.000000
 -0.200000 -0.200000  0.200000      2.000000
  0.200000 -0.200000  0.200000      2.000000
  0.400000  0.200000  0.200000      2.000000
  0.200000  0.400000  0.200000      2.000000
  0.200000  0.200000  0.400000      2.000000
 -0.200000  0.400000  0.200000      2.000000
 -0.400000  0.200000  0.200000      2.000000
 -0.200000  0.200000  0.400000      2.000000
 -0.400000 -0.200000  0.200000      2.000000
 -0.200000 -0.400000  0.200000      2.000000
 -0.200000 -0.200000  0.400000      2.000000
  0.200000 -0.400000  0.200000      2.000000
  0.400000 -0.200000  0.200000      2.000000
  0.200000 -0.200000  0.400000      2.000000
  0.400000  0.400000  0.200000      2.000000
  0.200000  0.400000  0.400000      2.000000
  0.400000  0.200000  0.400000      2.000000
 -0.400000  0.400000  0.200000      2.000000
 -0.400000  0.200000  0.400000      2.000000
 -0.200000  0.400000  0.400000      2.000000
 -0.400000 -0.400000  0.200000      2.000000
 -0.200000 -0.400000  0.400000      2.000000
 -0.400000 -0.200000  0.400000      2.000000
  0.400000 -0.400000  0.200000      2.000000
  0.400000 -0.200000  0.400000      2.000000
  0.200000 -0.400000  0.400000      2.000000
  0.400000  0.400000  0.400000      2.000000
 -0.400000  0.400000  0.400000      2.000000
 -0.400000 -0.400000  0.400000      2.000000
  0.400000 -0.400000  0.400000      2.000000
 
 Following cartesian coordinates:
            Coordinates               Weight
  0.000000  0.000000  0.000000      1.000000
  0.030395  0.000000  0.000000      2.000000
  0.000000  0.030395  0.000000      2.000000
  0.000000  0.000000  0.030395      2.000000
  0.060790  0.000000  0.000000      2.000000
  0.000000  0.060790  0.000000      2.000000
  0.000000  0.000000  0.060790      2.000000
  0.030395  0.030395  0.000000      2.000000
  0.000000  0.030395  0.030395      2.000000
  0.030395  0.000000  0.030395      2.000000
 -0.030395  0.030395  0.000000      2.000000
 -0.030395  0.000000  0.030395      2.000000
  0.000000 -0.030395  0.030395      2.000000
  0.060790  0.030395  0.000000      2.000000
  0.000000  0.060790  0.030395      2.000000
  0.030395  0.000000  0.060790      2.000000
 -0.030395  0.060790  0.000000      2.000000
 -0.060790  0.000000  0.030395      2.000000
  0.000000  0.030395  0.060790      2.000000
  0.000000 -0.060790  0.030395      2.000000
 -0.030395  0.000000  0.060790      2.000000
  0.060790  0.000000  0.030395      2.000000
  0.000000 -0.030395  0.060790      2.000000
  0.060790 -0.030395  0.000000      2.000000
  0.030395  0.060790  0.000000      2.000000
  0.060790  0.060790  0.000000      2.000000
  0.000000  0.060790  0.060790      2.000000
  0.060790  0.000000  0.060790      2.000000
 -0.060790  0.060790  0.000000      2.000000
 -0.060790  0.000000  0.060790      2.000000
  0.000000 -0.060790  0.060790      2.000000
  0.030395  0.030395  0.030395      2.000000
 -0.030395  0.030395  0.030395      2.000000
 -0.030395 -0.030395  0.030395      2.000000
  0.030395 -0.030395  0.030395      2.000000
  0.060790  0.030395  0.030395      2.000000
  0.030395  0.060790  0.030395      2.000000
  0.030395  0.030395  0.060790      2.000000
 -0.030395  0.060790  0.030395      2.000000
 -0.060790  0.030395  0.030395      2.000000
 -0.030395  0.030395  0.060790      2.000000
 -0.060790 -0.030395  0.030395      2.000000
 -0.030395 -0.060790  0.030395      2.000000
 -0.030395 -0.030395  0.060790      2.000000
  0.030395 -0.060790  0.030395      2.000000
  0.060790 -0.030395  0.030395      2.000000
  0.030395 -0.030395  0.060790      2.000000
  0.060790  0.060790  0.030395      2.000000
  0.030395  0.060790  0.060790      2.000000
  0.060790  0.030395  0.060790      2.000000
 -0.060790  0.060790  0.030395      2.000000
 -0.060790  0.030395  0.060790      2.000000
 -0.030395  0.060790  0.060790      2.000000
 -0.060790 -0.060790  0.030395      2.000000
 -0.030395 -0.060790  0.060790      2.000000
 -0.060790 -0.030395  0.060790      2.000000
  0.060790 -0.060790  0.030395      2.000000
  0.060790 -0.030395  0.060790      2.000000
  0.030395 -0.060790  0.060790      2.000000
  0.060790  0.060790  0.060790      2.000000
 -0.060790  0.060790  0.060790      2.000000
 -0.060790 -0.060790  0.060790      2.000000
  0.060790 -0.060790  0.060790      2.000000
 


--------------------------------------------------------------------------------------------------------




 Dimension of arrays:
   k-points           NKPTS =     63   k-points in BZ     NKDIM =     63   number of bands    NBANDS=    120
   number of dos      NEDOS =    301   number of ions     NIONS =     16
   non local maximal  LDIM  =      6   non local SUM 2l+1 LMDIM =     18
   total plane-waves  NPLWV =  46656
   max r-space proj   IRMAX =      1   max aug-charges    IRDMAX=   9546
   dimension x,y,z NGX =    36 NGY =   36 NGZ =   36
   dimension x,y,z NGXF=    72 NGYF=   72 NGZF=   72
   support grid    NGXF=    72 NGYF=   72 NGZF=   72
   ions per type =               5   2   8   1
   NGX,Y,Z   is equivalent  to a cutoff of   9.10,  9.10,  9.10 a.u.
   NGXF,Y,Z  is equivalent  to a cutoff of  18.19, 18.19, 18.19 a.u.

 SYSTEM =  unknown system                          
 POSCAR =  Nb-Mo-Ta-W alloy                        

 Startparameter for this run:
   NWRITE =      2    write-flag & timer
   PREC   = accura    normal or accurate (medium, high low for compatibility)
   ISTART =      0    job   : 0-new  1-cont  2-samecut
   ICHARG =      2    charge: 1-file 2-atom 10-const
   ISPIN  =      1    spin polarized calculation?
   LNONCOLLINEAR =      F non collinear calculations
   LSORBIT =      F    spin-orbit coupling
   INIWAV =      1    electr: 0-lowe 1-rand  2-diag
   LASPH  =      F    aspherical Exc in radial PAW
 Electronic Relaxation 1
   ENCUT  =  250.0 eV  18.37 Ry    4.29 a.u.   8.48  8.48  8.48*2*pi/ulx,y,z
   ENINI  =  250.0     initial cutoff
   ENAUG  =  455.7 eV  augmentation charge cutoff
   NELM   =     80;   NELMIN=  2; NELMDL= -5     # of ELM steps 
   EDIFF  = 0.1E-07   stopping-criterion for ELM
   LREAL  =      F    real-space projection
   NLSPLINE    = F    spline interpolate recip. space projectors
   LCOMPAT=      F    compatible to vasp.4.4
   GGA_COMPAT  = T    GGA compatible to vasp.4.4-vasp.4.6
   LMAXPAW     = -100 max onsite density
   LMAXMIX     =    2 max onsite mixed and CHGCAR
   VOSKOWN=      0    Vosko Wilk Nusair interpolation
   ROPT   =    0.00000   0.00000   0.00000   0.00000
 Ionic relaxation
   EDIFFG = -.1E-01   stopping-criterion for IOM
   NSW    =      0    number of steps for IOM
   NBLOCK =      1;   KBLOCK =      1    inner block; outer block 
   IBRION =     -1    ionic relax: 0-MD 1-quasi-New 2-CG
   NFREE  =      0    steps in history (QN), initial steepest desc. (CG)
   ISIF   =      2    stress and relaxation
   IWAVPR =     10    prediction:  0-non 1-charg 2-wave 3-comb
   ISYM   =      2    0-nonsym 1-usesym 2-fastsym
   LCORR  =      T    Harris-Foulkes like correction to forces

   POTIM  = 0.5000    time-step for ionic-motion
   TEIN   =    0.0    initial temperature
   TEBEG  =    0.0;   TEEND  =   0.0 temperature during run
   SMASS  =  -3.00    Nose mass-parameter (am)
   estimated Nose-frequenzy (Omega)   =  0.10E-29 period in steps = 0.13E+47 mass=  -0.989E-27a.u.
   SCALEE = 1.0000    scale energy and forces
   NPACO  =    256;   APACO  = 10.0  distance and # of slots for P.C.
   PSTRESS=    0.0 pullay stress

  Mass of Ions in am
   POMASS =  92.91 95.94180.95183.85
  Ionic Valenz
   ZVAL   =  13.00 14.00 11.00 14.00
  Atomic Wigner-Seitz radii
   RWIGS  =  -1.00 -1.00 -1.00 -1.00
  virtual crystal weights 
   VCA    =   1.00  1.00  1.00  1.00
   NELECT =     195.0000    total number of electrons
   NUPDOWN=      -1.0000    fix difference up-down

 DOS related values:
   EMIN   =  10.00;   EMAX   =-10.00  energy-range for DOS
   EFERMI =   0.00
   ISMEAR =     0;   SIGMA  =   0.02  broadening in eV -4-tet -1-fermi 0-gaus

 Electronic relaxation 2 (details)
   IALGO  =     38    algorithm
   LDIAG  =      T    sub-space diagonalisation (order eigenvalues)
   LSUBROT=      F    optimize rotation matrix (better conditioning)
   TURBO    =      0    0=normal 1=particle mesh
   IRESTART =      0    0=no restart 2=restart with 2 vectors
   NREBOOT  =      0    no. of reboots
   NMIN     =      0    reboot dimension
   EREF     =   0.00    reference energy to select bands
   IMIX   =      4    mixing-type and parameters
     AMIX     =   0.40;   BMIX     =  1.00
     AMIX_MAG =   1.60;   BMIX_MAG =  1.00
     AMIN     =   0.10
     WC   =   100.;   INIMIX=   1;  MIXPRE=   1;  MAXMIX= -45

 Intra band minimization:
   WEIMIN = 0.0000     energy-eigenvalue tresh-hold
   EBREAK =  0.21E-10  absolut break condition
   DEPER  =   0.30     relativ break condition  

   TIME   =   0.40     timestep for ELM

  volume/ion in A,a.u.               =      17.81       120.16
  Fermi-wavevector in a.u.,A,eV,Ry     =   1.442759  2.726419 28.321257  2.081554
  Thomas-Fermi vector in A             =   2.561243
 
 Write flags
   LWAVE        =      F    write WAVECAR
   LDOWNSAMPLE  =      F    k-point downsampling of WAVECAR
   LCHARG       =      F    write CHGCAR
   LVTOT        =      F    write LOCPOT, total local potential
   LVHAR        =      F    write LOCPOT, Hartree potential only
   LELF         =      F    write electronic localiz. function (ELF)
   LORBIT       =      0    0 simple, 1 ext, 2 COOP (PROOUT), +10 PAW based schemes


 Dipole corrections
   LMONO  =      F    monopole corrections only (constant potential shift)
   LDIPOL =      F    correct potential (dipole corrections)
   IDIPOL =      0    1-x, 2-y, 3-z, 4-all directions 
   EPSILON=  1.0000000 bulk dielectric constant

 Core level calculations are selected ICORELEVEL =  1
 Exchange correlation treatment:
   GGA     =    PE    GGA type
   LEXCH   =     8    internal setting for exchange type
   LIBXC   =     F    Libxc                    
   VOSKOWN =     0    Vosko Wilk Nusair interpolation
   LHFCALC =     F    Hartree Fock is set to
   LHFONE  =     F    Hartree Fock one center treatment
   AEXX    =    0.0000 exact exchange contribution

 Linear response parameters
   LEPSILON=     F    determine dielectric tensor
   LRPA    =     F    only Hartree local field effects (RPA)
   LNABLA  =     F    use nabla operator in PAW spheres
   LVEL    =     F    velocity operator in full k-point grid
   CSHIFT  =0.1000    complex shift for real part using Kramers Kronig
   OMEGAMAX=  -1.0    maximum frequency
   DEG_THRESHOLD= 0.2000000E-02 threshold for treating states as degnerate
   RTIME   =   -0.100 relaxation time in fs
  (WPLASMAI=    0.000 imaginary part of plasma frequency in eV, 0.658/RTIME)
   DFIELD  = 0.0000000 0.0000000 0.0000000 field for delta impulse in time
 
  Optional k-point grid parameters
   LKPOINTS_OPT  =     F    use optional k-point grid
   KPOINTS_OPT_MODE=     1    mode for optional k-point grid
 
 Orbital magnetization related:
   ORBITALMAG=     F  switch on orbital magnetization
   LCHIMAG   =     F  perturbation theory with respect to B field
   DQ        =  0.001000  dq finite difference perturbation B field
   LLRAUG    =     F  two centre corrections for induced B field



--------------------------------------------------------------------------------------------------------


 Static calculation
 charge density and potential will be updated during run
 non-spin polarized calculation
 Variant of blocked Davidson
 Davidson routine will perform the subspace rotation
 perform sub-space diagonalisation
    after iterative eigenvector-optimisation
 modified Broyden-mixing scheme, WC =      100.0
 initial mixing is a Kerker type mixing with AMIX =  0.4000 and BMIX =      1.0000
 Hartree-type preconditioning will be used
 using additional bands           22
 reciprocal scheme for non local part
 use partial core corrections
 calculate Harris-corrections to forces 
   (improved forces if not selfconsistent)
 use gradient corrections 
 use of overlap-Matrix (Vanderbilt PP)
 Gauss-broadening in eV      SIGMA  =   0.02


--------------------------------------------------------------------------------------------------------


  energy-cutoff  :      250.00
  volume of cell :      284.89
      direct lattice vectors                 reciprocal lattice vectors
     6.580000000  0.000000000  0.000000000     0.151975684  0.000000000  0.000000000
     0.000000000  6.580000000  0.000000000     0.000000000  0.151975684  0.000000000
     0.000000000  0.000000000  6.580000000     0.000000000  0.000000000  0.151975684

  length of vectors
     6.580000000  6.580000000  6.580000000     0.151975684  0.151975684  0.151975684


 
 k-points in units of 2pi/SCALE and weight: K-Spacing Value to Generate K-Mesh: 0.03
   0.00000000  0.00000000  0.00000000       0.008
   0.03039514  0.00000000  0.00000000       0.016
   0.00000000  0.03039514  0.00000000       0.016
   0.00000000  0.00000000  0.03039514       0.016
   0.06079027  0.00000000  0.00000000       0.016
   0.00000000  0.06079027  0.00000000       0.016
   0.00000000  0.00000000  0.06079027       0.016
   0.03039514  0.03039514  0.00000000       0.016
   0.00000000  0.03039514  0.03039514       0.016
   0.03039514  0.00000000  0.03039514       0.016
  -0.03039514  0.03039514  0.00000000       0.016
  -0.03039514  0.00000000  0.03039514       0.016
   0.00000000 -0.03039514  0.03039514       0.016
   0.06079027  0.03039514  0.00000000       0.016
   0.00000000  0.06079027  0.03039514       0.016
   0.03039514  0.00000000  0.06079027       0.016
  -0.03039514  0.06079027  0.00000000       0.016
  -0.06079027  0.00000000  0.03039514       0.016
   0.00000000  0.03039514  0.06079027       0.016
   0.00000000 -0.06079027  0.03039514       0.016
  -0.03039514  0.00000000  0.06079027       0.016
   0.06079027  0.00000000  0.03039514       0.016
   0.00000000 -0.03039514  0.06079027       0.016
   0.06079027 -0.03039514  0.00000000       0.016
   0.03039514  0.06079027  0.00000000       0.016
   0.06079027  0.06079027  0.00000000       0.016
   0.00000000  0.06079027  0.06079027       0.016
   0.06079027  0.00000000  0.06079027       0.016
  -0.06079027  0.06079027  0.00000000       0.016
  -0.06079027  0.00000000  0.06079027       0.016
   0.00000000 -0.06079027  0.06079027       0.016
   0.03039514  0.03039514  0.03039514       0.016
  -0.03039514  0.03039514  0.03039514       0.016
  -0.03039514 -0.03039514  0.03039514       0.016
   0.03039514 -0.03039514  0.03039514       0.016
   0.06079027  0.03039514  0.03039514       0.016
   0.03039514  0.06079027  0.03039514       0.016
   0.03039514  0.03039514  0.06079027       0.016
  -0.03039514  0.06079027  0.03039514       0.016
  -0.06079027  0.03039514  0.03039514       0.016
  -0.03039514  0.03039514  0.06079027       0.016
  -0.06079027 -0.03039514  0.03039514       0.016
  -0.03039514 -0.06079027  0.03039514       0.016
  -0.03039514 -0.03039514  0.06079027       0.016
   0.03039514 -0.06079027  0.03039514       0.016
   0.06079027 -0.03039514  0.03039514       0.016
   0.03039514 -0.03039514  0.06079027       0.016
   0.06079027  0.06079027  0.03039514       0.016
   0.03039514  0.06079027  0.06079027       0.016
   0.06079027  0.03039514  0.06079027       0.016
  -0.06079027  0.06079027  0.03039514       0.016
  -0.06079027  0.03039514  0.06079027       0.016
  -0.03039514  0.06079027  0.06079027       0.016
  -0.06079027 -0.06079027  0.03039514       0.016
  -0.03039514 -0.06079027  0.06079027       0.016
  -0.06079027 -0.03039514  0.06079027       0.016
   0.06079027 -0.06079027  0.03039514       0.016
   0.06079027 -0.03039514  0.06079027       0.016
   0.03039514 -0.06079027  0.06079027       0.016
   0.06079027  0.06079027  0.06079027       0.016
  -0.06079027  0.06079027  0.06079027       0.016
  -0.06079027 -0.06079027  0.06079027       0.016
   0.06079027 -0.06079027  0.06079027       0.016
 
 k-points in reciprocal lattice and weights: K-Spacing Value to Generate K-Mesh: 0.03
   0.00000000  0.00000000  0.00000000       0.008
   0.20000000  0.00000000  0.00000000       0.016
   0.00000000  0.20000000  0.00000000       0.016
   0.00000000  0.00000000  0.20000000       0.016
   0.40000000  0.00000000  0.00000000       0.016
   0.00000000  0.40000000  0.00000000       0.016
   0.00000000  0.00000000  0.40000000       0.016
   0.20000000  0.20000000  0.00000000       0.016
   0.00000000  0.20000000  0.20000000       0.016
   0.20000000  0.00000000  0.20000000       0.016
  -0.20000000  0.20000000  0.00000000       0.016
  -0.20000000  0.00000000  0.20000000       0.016
   0.00000000 -0.20000000  0.20000000       0.016
   0.40000000  0.20000000  0.00000000       0.016
   0.00000000  0.40000000  0.20000000       0.016
   0.20000000  0.00000000  0.40000000       0.016
  -0.20000000  0.40000000  0.00000000       0.016
  -0.40000000  0.00000000  0.20000000       0.016
   0.00000000  0.20000000  0.40000000       0.016
   0.00000000 -0.40000000  0.20000000       0.016
  -0.20000000  0.00000000  0.40000000       0.016
   0.40000000  0.00000000  0.20000000       0.016
   0.00000000 -0.20000000  0.40000000       0.016
   0.40000000 -0.20000000  0.00000000       0.016
   0.20000000  0.40000000  0.00000000       0.016
   0.40000000  0.40000000  0.00000000       0.016
   0.00000000  0.40000000  0.40000000       0.016
   0.40000000  0.00000000  0.40000000       0.016
  -0.40000000  0.40000000  0.00000000       0.016
  -0.40000000  0.00000000  0.40000000       0.016
   0.00000000 -0.40000000  0.40000000       0.016
   0.20000000  0.20000000  0.20000000       0.016
  -0.20000000  0.20000000  0.20000000       0.016
  -0.20000000 -0.20000000  0.20000000       0.016
   0.20000000 -0.20000000  0.20000000       0.016
   0.40000000  0.20000000  0.20000000       0.016
   0.20000000  0.40000000  0.20000000       0.016
   0.20000000  0.20000000  0.40000000       0.016
  -0.20000000  0.40000000  0.20000000       0.016
  -0.40000000  0.20000000  0.20000000       0.016
  -0.20000000  0.20000000  0.40000000       0.016
  -0.40000000 -0.20000000  0.20000000       0.016
  -0.20000000 -0.40000000  0.20000000       0.016
  -0.20000000 -0.20000000  0.40000000       0.016
   0.20000000 -0.40000000  0.20000000       0.016
   0.40000000 -0.20000000  0.20000000       0.016
   0.20000000 -0.20000000  0.40000000       0.016
   0.40000000  0.40000000  0.20000000       0.016
   0.20000000  0.40000000  0.40000000       0.016
   0.40000000  0.20000000  0.40000000       0.016
  -0.40000000  0.40000000  0.20000000       0.016
  -0.40000000  0.20000000  0.40000000       0.016
  -0.20000000  0.40000000  0.40000000       0.016
  -0.40000000 -0.40000000  0.20000000       0.016
  -0.20000000 -0.40000000  0.40000000       0.016
  -0.40000000 -0.20000000  0.40000000       0.016
   0.40000000 -0.40000000  0.20000000       0.016
   0.40000000 -0.20000000  0.40000000       0.016
   0.20000000 -0.40000000  0.40000000       0.016
   0.40000000  0.40000000  0.40000000       0.016
  -0.40000000  0.40000000  0.40000000       0.016
  -0.40000000 -0.40000000  0.40000000       0.016
   0.40000000 -0.40000000  0.40000000       0.016
 
 position of ions in fractional coordinates (direct lattice) 
   0.50000000  0.50000000  0.50000000
   0.25000000  0.25000000  0.75000000
   0.25000000  0.75000000  0.25000000
   0.75000000  0.75000000  0.25000000
   0.00000000  0.00000000  0.50000000
   0.75000000  0.25000000  0.75000000
   0.00000000  0.50000000  0.00000000
   0.00000000  0.00000000  0.00000000
   0.75000000  0.75000000  0.75000000
   0.00000000  0.50000000  0.50000000
   0.50000000  0.00000000  0.50000000
   0.75000000  0.25000000  0.25000000
   0.50000000  0.00000000  0.00000000
   0.25000000  0.75000000  0.75000000
   0.50000000  0.50000000  0.00000000
   0.25000000  0.25000000  0.25000000
 
 position of ions in cartesian coordinates  (Angst):
   3.29000000  3.29000000  3.29000000
   1.64500000  1.64500000  4.93500000
   1.64500000  4.93500000  1.64500000
   4.93500000  4.93500000  1.64500000
   0.00000000  0.00000000  3.29000000
   4.93500000  1.64500000  4.93500000
   0.00000000  3.29000000  0.00000000
   0.00000000  0.00000000  0.00000000
   4.93500000  4.93500000  4.93500000
   0.00000000  3.29000000  3.29000000
   3.29000000  0.00000000  3.29000000
   4.93500000  1.64500000  1.64500000
   3.29000000  0.00000000  0.00000000
   1.64500000  4.93500000  4.93500000
   3.29000000  3.29000000  0.00000000
   1.64500000  1.64500000  1.64500000
 


--------------------------------------------------------------------------------------------------------


 k-point   1 :   0.0000 0.0000 0.0000  plane waves:    2517
 k-point   2 :   0.2000 0.0000 0.0000  plane waves:    2545
 k-point   3 :   0.0000 0.2000 0.0000  plane waves:    2545
 k-point   4 :   0.0000 0.0000 0.2000  plane waves:    2545
 k-point   5 :   0.4000 0.0000 0.0000  plane waves:    2569
 k-point   6 :   0.0000 0.4000 0.0000  plane waves:    2569
 k-point   7 :   0.0000 0.0000 0.4000  plane waves:    2569
 k-point   8 :   0.2000 0.2000 0.0000  plane waves:    2562
 k-point   9 :   0.0000 0.2000 0.2000  plane waves:    2562
 k-point  10 :   0.2000 0.0000 0.2000  plane waves:    2562
 k-point  11 :  -0.2000 0.2000 0.0000  plane waves:    2562
 k-point  12 :  -0.2000 0.0000 0.2000  plane waves:    2562
 k-point  13 :   0.0000-0.2000 0.2000  plane waves:    2562
 k-point  14 :   0.4000 0.2000 0.0000  plane waves:    2566
 k-point  15 :   0.0000 0.4000 0.2000  plane waves:    2566
 k-point  16 :   0.2000 0.0000 0.4000  plane waves:    2566
 k-point  17 :  -0.2000 0.4000 0.0000  plane waves:    2566
 k-point  18 :  -0.4000 0.0000 0.2000  plane waves:    2566
 k-point  19 :   0.0000 0.2000 0.4000  plane waves:    2566
 k-point  20 :   0.0000-0.4000 0.2000  plane waves:    2566
 k-point  21 :  -0.2000 0.0000 0.4000  plane waves:    2566
 k-point  22 :   0.4000 0.0000 0.2000  plane waves:    2566
 k-point  23 :   0.0000-0.2000 0.4000  plane waves:    2566
 k-point  24 :   0.4000-0.2000 0.0000  plane waves:    2566
 k-point  25 :   0.2000 0.4000 0.0000  plane waves:    2566
 k-point  26 :   0.4000 0.4000 0.0000  plane waves:    2570
 k-point  27 :   0.0000 0.4000 0.4000  plane waves:    2570
 k-point  28 :   0.4000 0.0000 0.4000  plane waves:    2570
 k-point  29 :  -0.4000 0.4000 0.0000  plane waves:    2570
 k-point  30 :  -0.4000 0.0000 0.4000  plane waves:    2570
 k-point  31 :   0.0000-0.4000 0.4000  plane waves:    2570
 k-point  32 :   0.2000 0.2000 0.2000  plane waves:    2572
 k-point  33 :  -0.2000 0.2000 0.2000  plane waves:    2572
 k-point  34 :  -0.2000-0.2000 0.2000  plane waves:    2572
 k-point  35 :   0.2000-0.2000 0.2000  plane waves:    2572
 k-point  36 :   0.4000 0.2000 0.2000  plane waves:    2546
 k-point  37 :   0.2000 0.4000 0.2000  plane waves:    2546
 k-point  38 :   0.2000 0.2000 0.4000  plane waves:    2546
 k-point  39 :  -0.2000 0.4000 0.2000  plane waves:    2546
 k-point  40 :  -0.4000 0.2000 0.2000  plane waves:    2546
 k-point  41 :  -0.2000 0.2000 0.4000  plane waves:    2546
 k-point  42 :  -0.4000-0.2000 0.2000  plane waves:    2546
 k-point  43 :  -0.2000-0.4000 0.2000  plane waves:    2546
 k-point  44 :  -0.2000-0.2000 0.4000  plane waves:    2546
 k-point  45 :   0.2000-0.4000 0.2000  plane waves:    2546
 k-point  46 :   0.4000-0.2000 0.2000  plane waves:    2546
 k-point  47 :   0.2000-0.2000 0.4000  plane waves:    2546
 k-point  48 :   0.4000 0.4000 0.2000  plane waves:    2549
 k-point  49 :   0.2000 0.4000 0.4000  plane waves:    2549
 k-point  50 :   0.4000 0.2000 0.4000  plane waves:    2549
 k-point  51 :  -0.4000 0.4000 0.2000  plane waves:    2549
 k-point  52 :  -0.4000 0.2000 0.4000  plane waves:    2549
 k-point  53 :  -0.2000 0.4000 0.4000  plane waves:    2549
 k-point  54 :  -0.4000-0.4000 0.2000  plane waves:    2549
 k-point  55 :  -0.2000-0.4000 0.4000  plane waves:    2549
 k-point  56 :  -0.4000-0.2000 0.4000  plane waves:    2549
 k-point  57 :   0.4000-0.4000 0.2000  plane waves:    2549
 k-point  58 :   0.4000-0.2000 0.4000  plane waves:    2549
 k-point  59 :   0.2000-0.4000 0.4000  plane waves:    2549
 k-point  60 :   0.4000 0.4000 0.4000  plane waves:    2533
 k-point  61 :  -0.4000 0.4000 0.4000  plane waves:    2533
 k-point  62 :  -0.4000-0.4000 0.4000  plane waves:    2533
 k-point  63 :   0.4000-0.4000 0.4000  plane waves:    2533

 maximum and minimum number of plane-waves per node :       235      194

 maximum number of plane-waves:      2572
 maximum index in each direction: 
   IXMAX=    8   IYMAX=    8   IZMAX=    8
   IXMIN=   -8   IYMIN=   -8   IZMIN=   -8


 parallel 3D FFT for wavefunctions:
    minimum data exchange during FFTs selected (reduces bandwidth)
 parallel 3D FFT for charge:
    minimum data exchange during FFTs selected (reduces bandwidth)


 total amount of memory used by VASP MPI-rank0    47721. kBytes
=======================================================================

   base      :      30000. kBytes
   nonl-proj :       8332. kBytes
   fftplans  :        456. kBytes
   grid      :        919. kBytes
   one-center:         31. kBytes
   wavefun   :       7983. kBytes
 
     INWAV:  cpu time      0.0000: real time      0.0001
 Broyden mixing: mesh for mixing (old mesh)
   NGX = 17   NGY = 17   NGZ = 17
  (NGX  = 72   NGY  = 72   NGZ  = 72)
  gives a total of   4913 points

 initial charge density was supplied:
 charge density of overlapping atoms calculated
 number of electron     195.0000000 magnetization 
 keeping initial charge density in first step


--------------------------------------------------------------------------------------------------------


 Maximum index for augmentation-charges          517 (set IRDMAX)


--------------------------------------------------------------------------------------------------------


 First call to EWALD:  gamma=   0.269
 Maximum number of real-space cells 3x 3x 3
 Maximum number of reciprocal cells 3x 3x 3

    FEWALD:  cpu time      0.0013: real time      0.0013


--------------------------------------- Iteration      1(   1)  ---------------------------------------


    POTLOK:  cpu time      0.0315: real time      0.0707
    SETDIJ:  cpu time      0.0027: real time      0.0028
     EDDAV:  cpu time      3.2991: real time      3.4071
       DOS:  cpu time      0.0049: real time      0.0050
    --------------------------------------------
      LOOP:  cpu time      3.3382: real time      3.4856

 eigenvalue-minimisations  : 15648
 total energy-change (2. order) : 0.1667956E+04  (-0.7446726E+04)
 number of electron     195.0000000 magnetization 
 augmentation part      195.0000000 magnetization 

 Free energy of the ion-electron system (eV)
  ---------------------------------------------------
  alpha Z        PSCENC =      1830.92505634
  Ewald energy   TEWEN  =    -19004.84507586
  -Hartree energ DENC   =     -3273.10430165
  -exchange      EXHF   =         0.00000000
  -V(xc)+E(xc)   XCENC  =       663.64337047
  PAW double counting   =     17195.67215031   -16908.78845960
  entropy T*S    EENTRO =        -0.00094331
  eigenvalues    EBANDS =      -577.56949495
  atomic energy  EATOM  =     21742.02380513
  Solvation  Ediel_sol  =         0.00000000
  ---------------------------------------------------
  free energy    TOTEN  =      1667.95610688 eV

  energy without entropy =     1667.95705019  energy(sigma->0) =     1667.95657853


--------------------------------------------------------------------------------------------------------




--------------------------------------- Iteration      1(   2)  ---------------------------------------


     EDDAV:  cpu time      2.9844: real time      2.9982
       DOS:  cpu time      0.0043: real time      0.0043
    --------------------------------------------
      LOOP:  cpu time      2.9886: real time      3.0024

 eigenvalue-minimisations  : 15824
 total energy-change (2. order) :-0.1705084E+04  (-0.1647698E+04)
 number of electron     195.0000000 magnetization 
 augmentation part      195.0000000 magnetization 

 Free energy of the ion-electron system (eV)
  ---------------------------------------------------
  alpha Z        PSCENC =      1830.92505634
  Ewald energy   TEWEN  =    -19004.84507586
  -Hartree energ DENC   =     -3273.10430165
  -exchange      EXHF   =         0.00000000
  -V(xc)+E(xc)   XCENC  =       663.64337047
  PAW double counting   =     17195.67215031   -16908.78845960
  entropy T*S    EENTRO =        -0.00151662
  eigenvalues    EBANDS =     -2282.65295192
  atomic energy  EATOM  =     21742.02380513
  Solvation  Ediel_sol  =         0.00000000
  ---------------------------------------------------
  free energy    TOTEN  =       -37.12792340 eV

  energy without entropy =      -37.12640679  energy(sigma->0) =      -37.12716509


--------------------------------------------------------------------------------------------------------




--------------------------------------- Iteration      1(   3)  ---------------------------------------


     EDDAV:  cpu time      3.9978: real time      4.0150
       DOS:  cpu time      0.0045: real time      0.0045
    --------------------------------------------
      LOOP:  cpu time      4.0023: real time      4.0195

 eigenvalue-minimisations  : 23184
 total energy-change (2. order) :-0.1418885E+03  (-0.1338315E+03)
 number of electron     195.0000000 magnetization 
 augmentation part      195.0000000 magnetization 

 Free energy of the ion-electron system (eV)
  ---------------------------------------------------
  alpha Z        PSCENC =      1830.92505634
  Ewald energy   TEWEN  =    -19004.84507586
  -Hartree energ DENC   =     -3273.10430165
  -exchange      EXHF   =         0.00000000
  -V(xc)+E(xc)   XCENC  =       663.64337047
  PAW double counting   =     17195.67215031   -16908.78845960
  entropy T*S    EENTRO =        -0.00286212
  eigenvalues    EBANDS =     -2424.54013856
  atomic energy  EATOM  =     21742.02380513
  Solvation  Ediel_sol  =         0.00000000
  ---------------------------------------------------
  free energy    TOTEN  =      -179.01645554 eV

  energy without entropy =     -179.01359343  energy(sigma->0) =     -179.01502448


--------------------------------------------------------------------------------------------------------




--------------------------------------- Iteration      1(   4)  ---------------------------------------


     EDDAV:  cpu time      4.1784: real time      4.1983
       DOS:  cpu time      0.0047: real time      0.0047
    --------------------------------------------
      LOOP:  cpu time      4.1831: real time      4.2053

 eigenvalue-minimisations  : 23704
 total energy-change (2. order) :-0.9411984E+01  (-0.9192380E+01)
 number of electron     195.0000000 magnetization 
 augmentation part      195.0000000 magnetization 

 Free energy of the ion-electron system (eV)
  ---------------------------------------------------
  alpha Z        PSCENC =      1830.92505634
  Ewald energy   TEWEN  =    -19004.84507586
  -Hartree energ DENC   =     -3273.10430165
  -exchange      EXHF   =         0.00000000
  -V(xc)+E(xc)   XCENC  =       663.64337047
  PAW double counting   =     17195.67215031   -16908.78845960
  entropy T*S    EENTRO =        -0.00384568
  eigenvalues    EBANDS =     -2433.95113901
  atomic energy  EATOM  =     21742.02380513
  Solvation  Ediel_sol  =         0.00000000
  ---------------------------------------------------
  free energy    TOTEN  =      -188.42843955 eV

  energy without entropy =     -188.42459387  energy(sigma->0) =     -188.42651671


--------------------------------------------------------------------------------------------------------




--------------------------------------- Iteration      1(   5)  ---------------------------------------


     EDDAV:  cpu time      3.9526: real time      3.9717
       DOS:  cpu time      0.0045: real time      0.0045
    CHARGE:  cpu time      0.0804: real time      0.0807
    MIXING:  cpu time      0.0002: real time      0.0002
    --------------------------------------------
      LOOP:  cpu time      4.0376: real time      4.0547

 eigenvalue-minimisations  : 23128
 total energy-change (2. order) :-0.5074610E+00  (-0.5037053E+00)
 number of electron     194.9999824 magnetization 
 augmentation part       40.7402579 magnetization 

 Broyden mixing:
  rms(total) = 0.52626E+01    rms(broyden)= 0.52618E+01
  rms(prec ) = 0.57033E+01
  weight for this iteration     100.00

 Free energy of the ion-electron system (eV)
  ---------------------------------------------------
  alpha Z        PSCENC =      1830.92505634
  Ewald energy   TEWEN  =    -19004.84507586
  -Hartree energ DENC   =     -3273.10430165
  -exchange      EXHF   =         0.00000000
  -V(xc)+E(xc)   XCENC  =       663.64337047
  PAW double counting   =     17195.67215031   -16908.78845960
  entropy T*S    EENTRO =        -0.00397890
  eigenvalues    EBANDS =     -2434.45846676
  atomic energy  EATOM  =     21742.02380513
  Solvation  Ediel_sol  =         0.00000000
  ---------------------------------------------------
  free energy    TOTEN  =      -188.93590053 eV

  energy without entropy =     -188.93192163  energy(sigma->0) =     -188.93391108


--------------------------------------------------------------------------------------------------------




--------------------------------------- Iteration      1(   6)  ---------------------------------------


    POTLOK:  cpu time      0.0054: real time      0.0055
    SETDIJ:  cpu time      0.0019: real time      0.0019
     EDDAV:  cpu time      3.3132: real time      3.3273
       DOS:  cpu time      0.0046: real time      0.0046
    CHARGE:  cpu time      0.0820: real time      0.0824
    MIXING:  cpu time      0.0003: real time      0.0003
    --------------------------------------------
      LOOP:  cpu time      3.4074: real time      3.4219

 eigenvalue-minimisations  : 18264
 total energy-change (2. order) : 0.6162504E+01  (-0.1545370E+01)
 number of electron     194.9999815 magnetization 
 augmentation part       42.0647116 magnetization 

 Broyden mixing:
  rms(total) = 0.22617E+01    rms(broyden)= 0.22615E+01
  rms(prec ) = 0.27161E+01
  weight for this iteration     100.00

 eigenvalues of (default mixing * dielectric matrix)
  average eigenvalue GAMMA=   1.5636
  1.5636

 Free energy of the ion-electron system (eV)
  ---------------------------------------------------
  alpha Z        PSCENC =      1830.92505634
  Ewald energy   TEWEN  =    -19004.84507586
  -Hartree energ DENC   =     -3091.88101550
  -exchange      EXHF   =         0.00000000
  -V(xc)+E(xc)   XCENC  =       654.62505260
  PAW double counting   =     21441.17360235   -21174.08472566
  entropy T*S    EENTRO =        -0.00522126
  eigenvalues    EBANDS =     -2580.70487417
  atomic energy  EATOM  =     21742.02380513
  Solvation  Ediel_sol  =         0.00000000
  ---------------------------------------------------
  free energy    TOTEN  =      -182.77339603 eV

  energy without entropy =     -182.76817477  energy(sigma->0) =     -182.77078540


--------------------------------------------------------------------------------------------------------




--------------------------------------- Iteration      1(   7)  ---------------------------------------


    POTLOK:  cpu time      0.0047: real time      0.0048
    SETDIJ:  cpu time      0.0017: real time      0.0017
     EDDAV:  cpu time      3.6274: real time      3.6427
       DOS:  cpu time      0.0046: real time      0.0046
    CHARGE:  cpu time      0.0800: real time      0.0803
    MIXING:  cpu time      0.0004: real time      0.0004
    --------------------------------------------
      LOOP:  cpu time      3.7187: real time      3.7345

 eigenvalue-minimisations  : 20680
 total energy-change (2. order) :-0.1459687E+01  (-0.1962541E+01)
 number of electron     194.9999824 magnetization 
 augmentation part       41.8553201 magnetization 

 Broyden mixing:
  rms(total) = 0.13933E+01    rms(broyden)= 0.13930E+01
  rms(prec ) = 0.31781E+01
  weight for this iteration     100.00

 eigenvalues of (default mixing * dielectric matrix)
  average eigenvalue GAMMA=   1.1477
  1.7920  0.5034

 Free energy of the ion-electron system (eV)
  ---------------------------------------------------
  alpha Z        PSCENC =      1830.92505634
  Ewald energy   TEWEN  =    -19004.84507586
  -Hartree energ DENC   =     -3038.94147124
  -exchange      EXHF   =         0.00000000
  -V(xc)+E(xc)   XCENC  =       651.42348790
  PAW double counting   =     24516.20243053   -24255.64956466
  entropy T*S    EENTRO =        -0.00488916
  eigenvalues    EBANDS =     -2625.36686214
  atomic energy  EATOM  =     21742.02380513
  Solvation  Ediel_sol  =         0.00000000
  ---------------------------------------------------
  free energy    TOTEN  =      -184.23308315 eV

  energy without entropy =     -184.22819400  energy(sigma->0) =     -184.23063857


--------------------------------------------------------------------------------------------------------




--------------------------------------- Iteration      1(   8)  ---------------------------------------


    POTLOK:  cpu time      0.0049: real time      0.0050
    SETDIJ:  cpu time      0.0017: real time      0.0017
     EDDAV:  cpu time      3.2803: real time      3.2945
       DOS:  cpu time      0.0044: real time      0.0044
    CHARGE:  cpu time      0.0800: real time      0.0803
    MIXING:  cpu time      0.0003: real time      0.0003
    --------------------------------------------
      LOOP:  cpu time      3.3716: real time      3.3863

 eigenvalue-minimisations  : 18120
 total energy-change (2. order) : 0.3531480E+01  (-0.1086767E+01)
 number of electron     194.9999820 magnetization 
 augmentation part       42.3636027 magnetization 

 Broyden mixing:
  rms(total) = 0.37501E+00    rms(broyden)= 0.37399E+00
  rms(prec ) = 0.55163E+00
  weight for this iteration     100.00

 eigenvalues of (default mixing * dielectric matrix)
  average eigenvalue GAMMA=   1.1155
  1.9215  1.0341  0.3907

 Free energy of the ion-electron system (eV)
  ---------------------------------------------------
  alpha Z        PSCENC =      1830.92505634
  Ewald energy   TEWEN  =    -19004.84507586
  -Hartree energ DENC   =     -2993.49663495
  -exchange      EXHF   =         0.00000000
  -V(xc)+E(xc)   XCENC  =       649.46593794
  PAW double counting   =     25939.61131463   -25683.65334831
  entropy T*S    EENTRO =        -0.00490120
  eigenvalues    EBANDS =     -2660.72775727
  atomic energy  EATOM  =     21742.02380513
  Solvation  Ediel_sol  =         0.00000000
  ---------------------------------------------------
  free energy    TOTEN  =      -180.70160353 eV

  energy without entropy =     -180.69670233  energy(sigma->0) =     -180.69915293


--------------------------------------------------------------------------------------------------------




--------------------------------------- Iteration      1(   9)  ---------------------------------------


    POTLOK:  cpu time      0.0046: real time      0.0047
    SETDIJ:  cpu time      0.0017: real time      0.0017
     EDDAV:  cpu time      3.6783: real time      3.6936
       DOS:  cpu time      0.0046: real time      0.0047
    CHARGE:  cpu time      0.0809: real time      0.0812
    MIXING:  cpu time      0.0003: real time      0.0003
    --------------------------------------------
      LOOP:  cpu time      3.7703: real time      3.7862

 eigenvalue-minimisations  : 21040
 total energy-change (2. order) :-0.5066650E-01  (-0.1427334E+00)
 number of electron     194.9999821 magnetization 
 augmentation part       42.3118136 magnetization 

 Broyden mixing:
  rms(total) = 0.27721E+00    rms(broyden)= 0.27707E+00
  rms(prec ) = 0.41690E+00
  weight for this iteration     100.00

 eigenvalues of (default mixing * dielectric matrix)
  average eigenvalue GAMMA=   1.1477
  2.1326  1.5283  0.5607  0.3690

 Free energy of the ion-electron system (eV)
  ---------------------------------------------------
  alpha Z        PSCENC =      1830.92505634
  Ewald energy   TEWEN  =    -19004.84507586
  -Hartree energ DENC   =     -2990.08938475
  -exchange      EXHF   =         0.00000000
  -V(xc)+E(xc)   XCENC  =       649.33272520
  PAW double counting   =     26392.55994424   -26135.96328969
  entropy T*S    EENTRO =        -0.00541729
  eigenvalues    EBANDS =     -2664.69063336
  atomic energy  EATOM  =     21742.02380513
  Solvation  Ediel_sol  =         0.00000000
  ---------------------------------------------------
  free energy    TOTEN  =      -180.75227004 eV

  energy without entropy =     -180.74685275  energy(sigma->0) =     -180.74956139


--------------------------------------------------------------------------------------------------------




--------------------------------------- Iteration      1(  10)  ---------------------------------------


    POTLOK:  cpu time      0.0046: real time      0.0048
    SETDIJ:  cpu time      0.0017: real time      0.0017
     EDDAV:  cpu time      3.5550: real time      3.5699
       DOS:  cpu time      0.0045: real time      0.0045
    CHARGE:  cpu time      0.0800: real time      0.0804
    MIXING:  cpu time      0.0003: real time      0.0003
    --------------------------------------------
      LOOP:  cpu time      3.6462: real time      3.6616

 eigenvalue-minimisations  : 20000
 total energy-change (2. order) : 0.2824421E-01  (-0.2656036E-01)
 number of electron     194.9999821 magnetization 
 augmentation part       42.2753098 magnetization 

 Broyden mixing:
  rms(total) = 0.14319E+00    rms(broyden)= 0.14310E+00
  rms(prec ) = 0.19763E+00
  weight for this iteration     100.00

 eigenvalues of (default mixing * dielectric matrix)
  average eigenvalue GAMMA=   1.1980
  2.6554  1.7193  0.8006  0.3806  0.4338

 Free energy of the ion-electron system (eV)
  ---------------------------------------------------
  alpha Z        PSCENC =      1830.92505634
  Ewald energy   TEWEN  =    -19004.84507586
  -Hartree energ DENC   =     -2993.10914767
  -exchange      EXHF   =         0.00000000
  -V(xc)+E(xc)   XCENC  =       649.45538291
  PAW double counting   =     26755.20995071   -26496.87464564
  entropy T*S    EENTRO =        -0.00470829
  eigenvalues    EBANDS =     -2663.50464347
  atomic energy  EATOM  =     21742.02380513
  Solvation  Ediel_sol  =         0.00000000
  ---------------------------------------------------
  free energy    TOTEN  =      -180.72402583 eV

  energy without entropy =     -180.71931754  energy(sigma->0) =     -180.72167169


--------------------------------------------------------------------------------------------------------




--------------------------------------- Iteration      1(  11)  ---------------------------------------


    POTLOK:  cpu time      0.0046: real time      0.0048
    SETDIJ:  cpu time      0.0017: real time      0.0018
     EDDAV:  cpu time      3.6507: real time      3.6659
       DOS:  cpu time      0.0045: real time      0.0045
    CHARGE:  cpu time      0.0802: real time      0.0805
    MIXING:  cpu time      0.0003: real time      0.0003
    --------------------------------------------
      LOOP:  cpu time      3.7421: real time      3.7577

 eigenvalue-minimisations  : 20600
 total energy-change (2. order) : 0.1173899E-02  (-0.8021313E-02)
 number of electron     194.9999821 magnetization 
 augmentation part       42.2437721 magnetization 

 Broyden mixing:
  rms(total) = 0.41924E-01    rms(broyden)= 0.41864E-01
  rms(prec ) = 0.87675E-01
  weight for this iteration     100.00

 eigenvalues of (default mixing * dielectric matrix)
  average eigenvalue GAMMA=   1.0959
  2.5246  1.7279  0.7935  0.7461  0.4127  0.3703

 Free energy of the ion-electron system (eV)
  ---------------------------------------------------
  alpha Z        PSCENC =      1830.92505634
  Ewald energy   TEWEN  =    -19004.84507586
  -Hartree energ DENC   =     -2997.82388968
  -exchange      EXHF   =         0.00000000
  -V(xc)+E(xc)   XCENC  =       649.67791991
  PAW double counting   =     27047.19440185   -26786.57062441
  entropy T*S    EENTRO =        -0.00490103
  eigenvalues    EBANDS =     -2661.29954419
  atomic energy  EATOM  =     21742.02380513
  Solvation  Ediel_sol  =         0.00000000
  ---------------------------------------------------
  free energy    TOTEN  =      -180.72285193 eV

  energy without entropy =     -180.71795090  energy(sigma->0) =     -180.72040142


--------------------------------------------------------------------------------------------------------




--------------------------------------- Iteration      1(  12)  ---------------------------------------


    POTLOK:  cpu time      0.0046: real time      0.0048
    SETDIJ:  cpu time      0.0017: real time      0.0017
     EDDAV:  cpu time      3.6324: real time      3.6473
       DOS:  cpu time      0.0046: real time      0.0046
[...]
     17     -26.1304      2.00000
     18     -25.8220      2.00000
     19     -25.7949      2.00000
     20     -25.7374      2.00000
     21     -25.7257      2.00000
     22     -25.7003      2.00000
     23     -25.6590      2.00000
     24     -25.6227      2.00000
     25     -25.5317      2.00000
     26     -25.5171      2.00000
     27     -25.4916      2.00000
     28     -25.4776      2.00000
     29     -25.4653      2.00000
     30     -25.4382      2.00000
     31     -25.4246      2.00000
     32     -25.4155      2.00000
     33     -25.3754      2.00000
     34     -25.3366      2.00000
     35     -25.2033      2.00000
     36     -25.1912      2.00000
     37     -25.1674      2.00000
     38     -25.1132      2.00000
     39     -25.0995      2.00000
     40     -25.0721      2.00000
     41     -25.0564      2.00000
     42     -22.4670      2.00000
     43     -22.3951      2.00000
     44     -22.2939      2.00000
     45     -22.2496      2.00000
     46     -22.0809      2.00000
     47     -22.0763      2.00000
     48     -22.0557      2.00000
     49     -22.0497      2.00000
     50     -22.0288      2.00000
     51     -22.0161      2.00000
     52     -21.9894      2.00000
     53     -21.8660      2.00000
     54     -21.8216      2.00000
     55     -21.7551      2.00000
     56     -21.7003      2.00000
     57       3.0508      2.00000
     58       3.5408      2.00000
     59       3.7218      2.00000
     60       4.1158      2.00000
     61       4.2909      2.00000
     62       4.4769      2.00000
     63       4.8252      2.00000
     64       5.3538      2.00000
     65       5.7071      2.00000
     66       5.7591      2.00000
     67       5.7813      2.00000
     68       5.7923      2.00000
     69       5.8754      2.00000
     70       5.9472      2.00000
     71       6.0237      2.00000
     72       6.0732      2.00000
     73       6.0926      2.00000
     74       6.1138      2.00000
     75       6.1630      2.00000
     76       6.2033      2.00000
     77       6.5343      2.00000
     78       6.5961      2.00000
     79       6.6907      2.00000
     80       6.7258      2.00000
     81       6.7737      2.00000
     82       6.7901      2.00000
     83       6.8006      2.00000
     84       6.8700      2.00000
     85       6.8932      2.00000
     86       6.9139      2.00000
     87       6.9475      2.00000
     88       6.9890      2.00000
     89       7.0153      2.00000
     90       7.0313      2.00000
     91       7.0610      2.00000
     92       7.1054      2.00000
     93       7.1288      2.00000
     94       7.1542      2.00000
     95       7.1826      2.00000
     96       7.2452      2.00000
     97       7.2590      2.00000
     98       7.3001      2.00000
     99       7.3182      2.00000
    100       7.3857      2.00000
    101       7.4065      2.00000
    102       7.4382      2.00000
    103       7.4946      2.00000
    104       7.8787      2.00000
    105      10.6130      0.00000
    106      10.6940      0.00000
    107      10.8895      0.00000
    108      10.9535      0.00000
    109      11.1122      0.00000
    110      11.1306      0.00000
    111      11.1959      0.00000
    112      11.3360      0.00000
    113      11.3625      0.00000
    114      11.4063      0.00000
    115      11.4491      0.00000
    116      11.4741      0.00000
    117      11.6672      0.00000
    118      11.7269      0.00000
    119      11.7805      0.00000
    120      11.8533      0.00000

 k-point    63 :       0.4000   -0.4000    0.4000
  band No.  band energies     occupation 
      1     -65.1028      2.00000
      2     -52.1468      2.00000
      3     -52.0813      2.00000
      4     -46.0173      2.00000
      5     -45.9900      2.00000
      6     -45.9467      2.00000
      7     -45.9054      2.00000
      8     -45.8859      2.00000
      9     -29.3518      2.00000
     10     -29.3372      2.00000
     11     -29.3322      2.00000
     12     -26.4300      2.00000
     13     -26.3281      2.00000
     14     -26.2986      2.00000
     15     -26.2816      2.00000
     16     -26.2539      2.00000
     17     -26.1288      2.00000
     18     -25.8180      2.00000
     19     -25.7811      2.00000
     20     -25.7769      2.00000
     21     -25.7287      2.00000
     22     -25.6987      2.00000
     23     -25.6625      2.00000
     24     -25.6220      2.00000
     25     -25.5463      2.00000
     26     -25.5247      2.00000
     27     -25.4888      2.00000
     28     -25.4729      2.00000
     29     -25.4478      2.00000
     30     -25.4307      2.00000
     31     -25.4179      2.00000
     32     -25.4020      2.00000
     33     -25.3722      2.00000
     34     -25.3336      2.00000
     35     -25.2034      2.00000
     36     -25.1913      2.00000
     37     -25.1658      2.00000
     38     -25.1184      2.00000
     39     -25.1071      2.00000
     40     -25.0796      2.00000
     41     -25.0529      2.00000
     42     -22.4846      2.00000
     43     -22.3826      2.00000
     44     -22.2967      2.00000
     45     -22.2488      2.00000
     46     -22.0804      2.00000
     47     -22.0614      2.00000
     48     -22.0497      2.00000
     49     -22.0480      2.00000
     50     -22.0342      2.00000
     51     -22.0181      2.00000
     52     -21.9893      2.00000
     53     -21.8653      2.00000
     54     -21.8266      2.00000
     55     -21.7646      2.00000
     56     -21.6954      2.00000
     57       3.0495      2.00000
     58       3.5412      2.00000
     59       3.7301      2.00000
     60       4.0990      2.00000
     61       4.2878      2.00000
     62       4.5108      2.00000
     63       4.7931      2.00000
     64       5.3641      2.00000
     65       5.7183      2.00000
     66       5.7663      2.00000
     67       5.7797      2.00000
     68       5.8005      2.00000
     69       5.8548      2.00000
     70       5.9314      2.00000
     71       6.0077      2.00000
     72       6.0417      2.00000
     73       6.1007      2.00000
     74       6.1237      2.00000
     75       6.1906      2.00000
     76       6.2186      2.00000
     77       6.5785      2.00000
     78       6.5944      2.00000
     79       6.6771      2.00000
     80       6.7303      2.00000
     81       6.7429      2.00000
     82       6.8086      2.00000
     83       6.8362      2.00000
     84       6.8652      2.00000
     85       6.8801      2.00000
     86       6.8853      2.00000
     87       6.9069      2.00000
     88       6.9575      2.00000
     89       6.9964      2.00000
     90       7.0485      2.00000
     91       7.0778      2.00000
     92       7.1211      2.00000
     93       7.1407      2.00000
     94       7.1765      2.00000
     95       7.2161      2.00000
     96       7.2261      2.00000
     97       7.2614      2.00000
     98       7.3115      2.00000
     99       7.3231      2.00000
    100       7.3609      2.00000
    101       7.4032      2.00000
    102       7.4395      2.00000
    103       7.4744      2.00000
    104       7.8823      2.00000
    105      10.5770      0.00000
    106      10.7024      0.00000
    107      10.8779      0.00000
    108      10.9818      0.00000
    109      11.1277      0.00000
    110      11.1548      0.00000
    111      11.1956      0.00000
    112      11.3019      0.00000
    113      11.3843      0.00000
    114      11.4531      0.00000
    115      11.4768      0.00000
    116      11.5254      0.00000
    117      11.6076      0.00000
    118      11.6958      0.00000
    119      11.7510      0.00000
    120      11.8447      0.00000


--------------------------------------------------------------------------------------------------------


 soft charge-density along one line, spin component           1
         0         1         2         3         4         5         6         7         8         9
 total charge-density along one line
 
 pseudopotential strength for first ion, spin component:           1
  5.815 -20.725  -0.002  -0.000  -0.000   0.005   0.000   0.000
-20.725   9.601  -0.003   0.000  -0.000   0.000  -0.000  -0.000
 -0.002  -0.003 -10.052   0.003   0.000   6.360  -0.003  -0.000
 -0.000   0.000   0.003 -10.054  -0.001  -0.003   6.362   0.001
 -0.000  -0.000   0.000  -0.001 -10.053  -0.000   0.001   6.361
  0.005   0.000   6.360  -0.003  -0.000   7.714   0.002   0.000
  0.000  -0.000  -0.003   6.362   0.001   0.002   7.713  -0.001
  0.000  -0.000  -0.000   0.001   6.361   0.000  -0.001   7.713
  0.000   0.000  -0.000  -0.000  -0.002   0.000   0.001   0.003
  0.002   0.001   0.000  -0.002  -0.000   0.000   0.003   0.001
 -0.001  -0.000   0.001  -0.000   0.000  -0.001   0.000  -0.000
 -0.001  -0.000  -0.000  -0.000   0.000   0.001   0.000   0.000
 -0.000  -0.000   0.002   0.000  -0.000  -0.002  -0.000   0.000
  0.000   0.000  -0.000  -0.000  -0.002   0.000   0.001   0.003
  0.003   0.001   0.000  -0.002  -0.000   0.000   0.003   0.001
 -0.001  -0.000   0.001  -0.000   0.000  -0.001   0.000  -0.000
 -0.001  -0.000  -0.000  -0.000   0.000   0.001   0.000   0.000
 -0.001  -0.000   0.002   0.000  -0.000  -0.002  -0.000   0.000
 total augmentation occupancy for first ion, spin component:           1
  1.995  -0.046   0.000   0.000   0.000   0.000   0.000   0.000   0.000   0.002  -0.000  -0.007   0.000  -0.000  -0.002   0.000
 -0.046   1.343   0.001   0.000   0.000   0.003  -0.000  -0.000  -0.003   0.043  -0.003  -0.016  -0.002   0.003  -0.034   0.000
  0.000   0.001   1.996   0.000  -0.000  -0.029  -0.000   0.000   0.000  -0.000   0.002   0.009   0.004  -0.000   0.000  -0.001
  0.000   0.000   0.000   1.996   0.000  -0.000  -0.029  -0.001   0.009   0.005   0.000   0.000   0.000  -0.005  -0.003  -0.000
  0.000   0.000  -0.000   0.000   1.996   0.000  -0.001  -0.028   0.005   0.009  -0.000   0.000   0.000  -0.003  -0.006   0.000
  0.000   0.003  -0.029  -0.000   0.000   0.069   0.001   0.000  -0.000   0.000  -0.005  -0.010  -0.009  -0.000  -0.001   0.002
  0.000  -0.000  -0.000  -0.029  -0.001   0.001   0.068   0.002  -0.010  -0.001  -0.000   0.000  -0.000   0.005   0.002   0.000
  0.000  -0.000   0.000  -0.001  -0.028   0.000   0.002   0.067  -0.002  -0.011   0.000  -0.001  -0.001   0.002   0.006  -0.000
  0.000  -0.003   0.000   0.009   0.005  -0.000  -0.010  -0.002   3.363   0.010  -0.006   0.154  -0.002  -1.420  -0.015   0.004
  0.002   0.043  -0.000   0.005   0.009   0.000  -0.001  -0.011   0.010   3.353   0.009  -0.014  -0.016  -0.016  -1.416  -0.005
 -0.000  -0.003   0.002   0.000  -0.000  -0.005  -0.000   0.000  -0.006   0.009   2.774  -0.028  -0.001   0.003  -0.005  -1.263
 -0.007  -0.016   0.009   0.000   0.000  -0.010   0.000  -0.001   0.154  -0.014  -0.028   3.367  -0.047  -0.087   0.009   0.013
  0.000  -0.002   0.004   0.000   0.000  -0.009  -0.000  -0.001  -0.002  -0.016  -0.001  -0.047   2.781   0.001   0.008   0.000
 -0.000   0.003  -0.000  -0.005  -0.003  -0.000   0.005   0.002  -1.420  -0.016   0.003  -0.087   0.001   0.612   0.011  -0.002
 -0.002  -0.034   0.000  -0.003  -0.006  -0.001   0.002   0.006  -0.015  -1.416  -0.005   0.009   0.008   0.011   0.609   0.003
  0.000   0.000  -0.001  -0.000   0.000   0.002   0.000  -0.000   0.004  -0.005  -1.263   0.013   0.000  -0.002   0.003   0.583
  0.006   0.002  -0.005   0.000  -0.000   0.005  -0.000  -0.000  -0.087   0.009   0.012  -1.423   0.021   0.047  -0.005  -0.006
 -0.000  -0.000  -0.002  -0.000  -0.000   0.004   0.000   0.000   0.001   0.008   0.000   0.022  -1.265  -0.001  -0.004  -0.000


------------------------ aborting loop because EDIFF is reached ----------------------------------------


    CHARGE:  cpu time      0.0824: real time      0.0827
    FORLOC:  cpu time      0.0005: real time      0.0005
    FORNL :  cpu time      0.7747: real time      0.7774
    STRESS:  cpu time      0.9531: real time      0.9567
    FORCOR:  cpu time      0.0067: real time      0.0067
    FORHAR:  cpu time      0.0015: real time      0.0015
    MIXING:  cpu time      0.0008: real time      0.0008
    OFIELD:  cpu time      0.0000: real time      0.0000

  FORCE on cell =-STRESS in cart. coord.  units (eV):
  Direction    XX          YY          ZZ          XY          YZ          ZX
  --------------------------------------------------------------------------------------
  Alpha Z  1830.92506  1830.92506  1830.92506
  Ewald   -6324.27729 -6348.02976 -6332.59829     2.10768    18.96915    12.64610
  Hartree  1009.95496   986.49772  1001.67525     1.58458    18.49984    11.95912
  E(xc)    -871.81990  -871.84377  -871.84299     0.00241    -0.05706    -0.02238
  Local    1470.24783  1517.56344  1487.18217    -3.54092   -35.95390   -23.44164
  n-local  -507.30201  -506.91418  -506.65848    -0.18193     0.31689    -0.46685
  augment   399.97502   400.00567   399.94712     0.00310    -0.20339    -0.18479
  Kinetic  2983.49005  2983.39061  2982.52273    -0.03117    -1.09366     0.02525
  Fock        0.00000     0.00000     0.00000     0.00000     0.00000     0.00000
  -------------------------------------------------------------------------------------
  Total      -8.80628    -8.40522    -8.84742    -0.05624     0.47787     0.51481
  in kB     -49.52512   -47.26962   -49.75649    -0.31630     2.68744     2.89520
  external pressure =      -48.85 kB  Pullay stress =        0.00 kB


 VOLUME and BASIS-vectors are now :
 -----------------------------------------------------------------------------
  energy-cutoff  :      250.00
  volume of cell :      284.89
      direct lattice vectors                 reciprocal lattice vectors
     6.580000000  0.000000000  0.000000000     0.151975684  0.000000000  0.000000000
     0.000000000  6.580000000  0.000000000     0.000000000  0.151975684  0.000000000
     0.000000000  0.000000000  6.580000000     0.000000000  0.000000000  0.151975684

  length of vectors
     6.580000000  6.580000000  6.580000000     0.151975684  0.151975684  0.151975684


 FORCES acting on ions
    electron-ion (+dipol)            ewald-force                    non-local-force                 convergence-correction
 -----------------------------------------------------------------------------------------------
   -.204E+02 -.413E+02 -.204E+02   0.204E+02 0.408E+02 0.204E+02   0.917E-02 0.356E-01 0.130E-01   0.855E-05 -.209E-04 -.134E-04
   -.308E+02 0.308E+02 -.994E+01   0.306E+02 -.306E+02 0.102E+02   -.263E-01 0.363E-01 -.120E+00   0.181E-04 -.813E-05 -.336E-04
   -.308E+02 -.308E+02 0.997E+01   0.306E+02 0.306E+02 -.102E+02   -.342E-01 -.184E-01 0.899E-01   0.173E-04 0.703E-05 0.251E-04
   0.308E+02 -.308E+02 0.995E+01   -.306E+02 0.306E+02 -.102E+02   0.697E-01 -.742E-01 0.769E-01   -.161E-04 0.110E-04 0.237E-04
   0.204E+02 0.413E+02 -.204E+02   -.204E+02 -.408E+02 0.204E+02   -.119E-01 -.456E-01 0.142E-01   -.762E-05 0.128E-04 -.121E-04
   0.330E+02 0.330E+02 -.108E+02   -.329E+02 -.329E+02 0.110E+02   0.928E-01 0.766E-01 -.145E-01   -.224E-04 -.116E-04 -.279E-04
   0.220E+02 -.442E+02 0.220E+02   -.220E+02 0.439E+02 -.220E+02   -.215E-01 -.224E-01 -.199E-01   -.739E-05 -.240E-05 0.145E-04
   0.173E+02 0.351E+02 0.173E+02   -.173E+02 -.345E+02 -.173E+02   -.192E-01 -.395E-01 0.642E-02   -.690E-05 0.923E-05 0.773E-05
   0.261E+02 -.261E+02 -.835E+01   -.259E+02 0.259E+02 0.863E+01   0.268E-01 -.301E-01 -.509E-01   -.170E-04 0.749E-05 -.219E-04
   0.173E+02 -.351E+02 -.173E+02   -.173E+02 0.345E+02 0.173E+02   -.121E-01 0.192E-01 0.301E-04   -.250E-05 -.165E-04 -.149E-04
   -.173E+02 0.350E+02 -.173E+02   0.173E+02 -.345E+02 0.173E+02   0.209E-01 0.243E-01 -.160E-01   0.316E-08 0.103E-04 -.158E-04
   0.262E+02 0.261E+02 0.834E+01   -.259E+02 -.259E+02 -.863E+01   0.265E-01 0.421E-01 0.706E-01   -.131E-04 -.189E-05 0.289E-04
   -.173E+02 0.349E+02 0.173E+02   0.173E+02 -.345E+02 -.173E+02   0.145E-01 0.907E-01 -.591E-02   0.465E-05 0.111E-04 0.102E-04
   -.261E+02 -.261E+02 -.839E+01   0.259E+02 0.259E+02 0.863E+01   -.112E+00 -.124E+00 -.784E-02   0.158E-04 0.540E-05 -.212E-04
   -.173E+02 -.351E+02 0.173E+02   0.173E+02 0.345E+02 -.173E+02   0.677E-02 0.106E-01 0.510E-02   0.125E-05 -.757E-05 0.983E-05
   -.331E+02 0.331E+02 0.108E+02   0.329E+02 -.329E+02 -.110E+02   -.832E-01 0.705E-01 -.537E-01   0.220E-04 0.597E-06 0.312E-04
 -----------------------------------------------------------------------------------------------
   0.537E-01 -.519E-01 0.124E-01   -.142E-13 -.213E-13 0.639E-13   -.537E-01 0.519E-01 -.124E-01   -.542E-05 0.591E-05 -.957E-05
 
 
 POSITION                                       TOTAL-FORCE (eV/Angst)
 -----------------------------------------------------------------------------------
      3.29000      3.29000      3.29000        -0.039701     -0.442196     -0.021472
      1.64500      1.64500      4.93500        -0.270824      0.262488      0.139900
      1.64500      4.93500      1.64500        -0.235350     -0.226799     -0.133457
      4.93500      4.93500      1.64500         0.267042     -0.257281     -0.167402
      0.00000      0.00000      3.29000         0.028917      0.430460     -0.029386
      4.93500      1.64500      4.93500         0.162680      0.162139      0.166039
      0.00000      3.29000      0.00000         0.029602     -0.340424      0.014945
      0.00000      0.00000      0.00000         0.015143      0.516661      0.007201
      4.93500      4.93500      4.93500         0.260872     -0.278301      0.227028
      0.00000      3.29000      3.29000         0.016590     -0.533730     -0.000822
      3.29000      0.00000      3.29000        -0.011743      0.506299     -0.014415
      4.93500      1.64500      1.64500         0.295185      0.292213     -0.217899
      3.29000      0.00000      0.00000        -0.014891      0.517143      0.010338
      1.64500      4.93500      4.93500        -0.298052     -0.290195      0.232990
      3.29000      3.29000      0.00000        -0.010371     -0.526513      0.010749
      1.64500      1.64500      1.64500        -0.195099      0.208035     -0.224339
 -----------------------------------------------------------------------------------
    total drift:                                0.000009      0.000005      0.000003


--------------------------------------------------------------------------------------------------------



  FREE ENERGIE OF THE ION-ELECTRON SYSTEM (eV)
  ---------------------------------------------------
  free  energy   TOTEN  =      -180.71918324 eV

  energy  without entropy=     -180.71431577  energy(sigma->0) =     -180.71674951
 


--------------------------------------------------------------------------------------------------------


    POTLOK:  cpu time      0.0062: real time      0.0062


--------------------------------------------------------------------------------------------------------


     LOOP+:  cpu time     88.3180: real time     89.4811
    4ORBIT:  cpu time      0.0000: real time      0.0000

 total amount of memory used by VASP MPI-rank0    47721. kBytes
=======================================================================

   base      :      30000. kBytes
   nonl-proj :       8332. kBytes
   fftplans  :        456. kBytes
   grid      :        919. kBytes
   one-center:         31. kBytes
   wavefun   :       7983. kBytes
 
  
  
 General timing and accounting informations for this job:
 ========================================================
  
                  Total CPU time used (sec):       92.930
                            User time (sec):       91.698
                          System time (sec):        1.232
                         Elapsed time (sec):       95.513
  
                   Maximum memory used (kb):       89592.
                   Average memory used (kb):          N/A
  
                          Minor page faults:        10673
                          Major page faults:            0
                 Voluntary context switches:          231
