 vasp.6.3.1 04May22 (build Jul 26 2022 04:02:40) complex                        
  
 executed on             LinuxIFC date 2023.12.01  07:50:21
 running on   48 total cores
 distrk:  each k-point on   48 cores,    1 groups
 distr:  one band on NCORE=  12 cores,    4 groups


--------------------------------------------------------------------------------------------------------


 INCAR:
   ISTART = 0
   NWRITE = 2
   PREC = Accurate
   ENCUT = 250
   GGA = PE
   NSW = 0
   ISIF = 2
   ISYM = 2
   NBLOCK = 1
   KBLOCK = 1
   IBRION = -1
   NELM = 80
   EDIFF = 1E-08
   EDIFFG = -0.01
   ALGO = Normal
   LDIAG = .TRUE.
   LREAL = .FALSE.
   ISMEAR = 0
   SIGMA = 0.02
   ICHARG = 2
   LPLANE = .TRUE.
   NPAR = 4
   LSCALU = .FALSE.
   NSIM = 4
   LWAVE = .FALSE.
   LCHARG = .FALSE.
   ICORELEVEL = 1

 POTCAR:    PAW_PBE Nb_sv 25May2007               
 POTCAR:    PAW_PBE Mo_sv 02Feb2006               
 POTCAR:    PAW_PBE Ta_pv 07Sep2000               
 POTCAR:    PAW_PBE W_sv 04Sep2015                
 POTCAR:    PAW_PBE Nb_sv 25May2007               
   SHA256 =  0e8fc07c9fcd1164cf2ade22d0399fd28f85e91cd773dfa6cf24839a48c95e24 Nb_sv/POTCAR          
   COPYR  = (c) Copyright 25May2007 Georg Kresse                                                    
   COPYR  = This file is part of the software VASP. Any use, copying, and all other rights are regul
   COPYR  = If you do not have a valid VASP license, you may not use, copy or distribute this file. 
   VRHFIN =Nb: 4p5s4d                                                                               
   LEXCH  = PE                                                                                      
   EATOM  =  1555.1913 eV,  114.3033 Ry                                                             
                                                                                                    
   TITEL  = PAW_PBE Nb_sv 25May2007                                                                 
   LULTRA =        F    use ultrasoft PP ?                                                          
   IUNSCR =        1    unscreen: 0-lin 1-nonlin 2-no                                               
   RPACOR =    1.800    partial core radius                                                         
   POMASS =   92.910; ZVAL   =   13.000    mass and valenz                                          
   RCORE  =    2.400    outmost cutoff radius                                                       
   RWIGS  =    2.400; RWIGS  =    1.270    wigner-seitz radius (au A)                               
   ENMAX  =  293.235; ENMIN  =  219.927 eV                                                          
   ICORE  =        3    local potential                                                             
   LCOR   =        T    correct aug charges                                                         
   LPAW   =        T    paw PP                                                                      
   EAUG   =  455.659                                                                                
   DEXC   =    0.000                                                                                
   RMAX   =    2.456    core radius for proj-oper                                                   
   RAUG   =    1.300    factor for augmentation sphere                                              
   RDEP   =    2.451    radius for radial grids                                                     
   RDEPT  =    1.956    core radius for aug-charge                                                  
                                                                                                    
   Atomic configuration                                                                             
   11 entries                                                                                       
     n  l   j            E        occ.                                                              
     1  0  0.50    -18805.2457   2.0000                                                             
     2  0  0.50     -2630.2869   2.0000                                                             
     2  1  1.50     -2348.4046   6.0000                                                             
     3  0  0.50      -438.8757   2.0000                                                             
     3  1  1.50      -346.7588   6.0000                                                             
     3  2  2.50      -196.2560  10.0000                                                             
     4  0  0.50       -58.3859   2.0000                                                             
     5  0  0.50        -3.9816   1.0000                                                             
     4  1  1.50       -34.5141   6.0000                                                             
     4  2  2.50        -3.0408   4.0000                                                             
     4  3  2.50        -1.3606   0.0000                                                             
   Description                                                                                      
     l       E           TYP  RCUT    TYP  RCUT                                                     
     0    -58.3859094     23  2.200                                                                 
     0     -3.9816262     23  2.200                                                                 
     1    -34.5140738     23  2.200                                                                 
     1     13.6058260     23  2.200                                                                 
     2     -3.0408010     23  2.200                                                                 
     2     -0.1283038     23  2.200                                                                 
     3     -1.3605826     23  2.400                                                                 
  local pseudopotential read in
  partial core-charges read in
  partial kinetic energy density read in
  atomic valenz-charges read in
  non local Contribution for L=           0  read in
    real space projection operators read in
  non local Contribution for L=           0  read in
    real space projection operators read in
  non local Contribution for L=           1  read in
    real space projection operators read in
  non local Contribution for L=           1  read in
    real space projection operators read in
  non local Contribution for L=           2  read in
    real space projection operators read in
  non local Contribution for L=           2  read in
    real space projection operators read in
    PAW grid and wavefunctions read in
 
   number of l-projection  operators is LMAX  =           6
   number of lm-projection operators is LMMAX =          18
 
 POTCAR:    PAW_PBE Mo_sv 02Feb2006               
   SHA256 =  2731df97e41766cc617548c5a8267718fdef1f509ac6bafa01e745abea2bdfaa Mo_sv/POTCAR          
   COPYR  = (c) Copyright 02Feb2006 Georg Kresse                                                    
   COPYR  = This file is part of the software VASP. Any use, copying, and all other rights are regul
   COPYR  = If you do not have a valid VASP license, you may not use, copy or distribute this file. 
   VRHFIN =Mo: 4p5s4d                                                                               
   LEXCH  = PE                                                                                      
   EATOM  =  1862.2866 eV,  136.8742 Ry                                                             
                                                                                                    
   TITEL  = PAW_PBE Mo_sv 02Feb2006                                                                 
   LULTRA =        F    use ultrasoft PP ?                                                          
   IUNSCR =        1    unscreen: 0-lin 1-nonlin 2-no                                               
   RPACOR =    2.200    partial core radius                                                         
   POMASS =   95.940; ZVAL   =   14.000    mass and valenz                                          
   RCORE  =    2.500    outmost cutoff radius                                                       
   RWIGS  =    2.750; RWIGS  =    1.455    wigner-seitz radius (au A)                               
   ENMAX  =  242.676; ENMIN  =  182.007 eV                                                          
   ICORE  =        3    local potential                                                             
   LCOR   =        T    correct aug charges                                                         
   LPAW   =        T    paw PP                                                                      
   EAUG   =  446.014                                                                                
   DEXC   =    0.000                                                                                
   RMAX   =    2.563    core radius for proj-oper                                                   
   RAUG   =    1.300    factor for augmentation sphere                                              
   RDEP   =    2.641    radius for radial grids                                                     
   RDEPT  =    2.031    core radius for aug-charge                                                  
                                                                                                    
   Atomic configuration                                                                             
   11 entries                                                                                       
     n  l   j            E        occ.                                                              
     1  0  0.50    -19819.0341   2.0000                                                             
     2  0  0.50     -2799.0127   2.0000                                                             
     2  1  1.50     -2502.0276   6.0000                                                             
     3  0  0.50      -476.4449   2.0000                                                             
     3  1  1.50      -379.1496   6.0000                                                             
     3  2  2.50      -220.9367  10.0000                                                             
     4  0  0.50       -64.3378   2.0000                                                             
     5  0  0.50        -4.0862   1.0000                                                             
     4  1  1.50       -38.4773   6.0000                                                             
     4  2  2.50        -3.7535   5.0000                                                             
     4  3  2.50        -1.3606   0.0000                                                             
   Description                                                                                      
     l       E           TYP  RCUT    TYP  RCUT                                                     
     0    -64.3377829     23  2.100                                                                 
     0     -4.0861640     23  2.400                                                                 
     1    -38.4772993     23  2.100                                                                 
     1     13.6058260     23  2.100                                                                 
     2     -3.7534941     23  2.400                                                                 
     2     -5.1140767     23  2.400                                                                 
     3     -4.0817478     23  2.500                                                                 
  local pseudopotential read in
  partial core-charges read in
  partial kinetic energy density read in
  atomic valenz-charges read in
  non local Contribution for L=           0  read in
    real space projection operators read in
  non local Contribution for L=           0  read in
    real space projection operators read in
  non local Contribution for L=           1  read in
    real space projection operators read in
  non local Contribution for L=           1  read in
    real space projection operators read in
  non local Contribution for L=           2  read in
    real space projection operators read in
  non local Contribution for L=           2  read in
    real space projection operators read in
    PAW grid and wavefunctions read in
 
   number of l-projection  operators is LMAX  =           6
   number of lm-projection operators is LMMAX =          18
 
 POTCAR:    PAW_PBE Ta_pv 07Sep2000               
   SHA256 =  00d0a14a36c127416459414afb8617d9754996fffa60a2465888e660b20a452f Ta_pv/POTCAR          
   COPYR  = (c) Copyright 07Sep2000 Georg Kresse                                                    
   COPYR  = This file is part of the software VASP. Any use, copying, and all other rights are regul
   COPYR  = If you do not have a valid VASP license, you may not use, copy or distribute this file. 
   VRHFIN =Ta:  5p6s5d                                                                              
   LEXCH  = PE                                                                                      
   EATOM  =  1047.1984 eV,   76.9669 Ry                                                             
                                                                                                    
   TITEL  = PAW_PBE Ta_pv 07Sep2000                                                                 
   LULTRA =        F    use ultrasoft PP ?                                                          
   IUNSCR =        1    unscreen: 0-lin 1-nonlin 2-no                                               
   RPACOR =    2.330    partial core radius                                                         
   POMASS =  180.948; ZVAL   =   11.000    mass and valenz                                          
   RCORE  =    2.500    outmost cutoff radius                                                       
   RWIGS  =    2.840; RWIGS  =    1.503    wigner-seitz radius (au A)                               
   ENMAX  =  223.667; ENMIN  =  167.750 eV                                                          
   RCLOC  =    2.205    cutoff for local pot                                                        
   LCOR   =        T    correct aug charges                                                         
   LPAW   =        T    paw PP                                                                      
   EAUG   =  377.421                                                                                
   DEXC   =    0.000                                                                                
   RMAX   =    2.551    core radius for proj-oper                                                   
   RAUG   =    1.300    factor for augmentation sphere                                              
   RDEP   =    2.526    radius for radial grids                                                     
   RDEPT  =    2.132    core radius for aug-charge                                                  
                                                                                                    
   Atomic configuration                                                                             
   15 entries                                                                                       
     n  l   j            E        occ.                                                              
     1  0  0.50    -67341.2801   2.0000                                                             
     2  0  0.50    -11566.9369   2.0000                                                             
     2  1  1.50    -10134.1175   6.0000                                                             
     3  0  0.50     -2648.5614   2.0000                                                             
     3  1  1.50     -2222.6006   6.0000                                                             
     3  2  2.50     -1726.3114  10.0000                                                             
     4  0  0.50      -538.6957   2.0000                                                             
     4  1  1.50      -399.0125   6.0000                                                             
     4  2  2.50      -220.3955  10.0000                                                             
     4  3  3.50       -23.0371  14.0000                                                             
     5  0  0.50       -71.2900   2.0000                                                             
     5  1  1.50       -37.8224   6.0000                                                             
     5  2  2.50        -2.6455   4.0000                                                             
     6  0  0.50        -4.9623   1.0000                                                             
     5  3  2.50        -1.3606   0.0000                                                             
   Description                                                                                      
     l       E           TYP  RCUT    TYP  RCUT                                                     
     1    -37.8224449     23  2.500                                                                 
     1      1.3605826     23  2.500                                                                 
     2     -2.6454718     23  2.500                                                                 
     2     -0.6258570     23  2.500                                                                 
     0     -4.9622674     23  2.500                                                                 
     0      4.7531427     23  2.500                                                                 
  local pseudopotential read in
  partial core-charges read in
  partial kinetic energy density read in
  atomic valenz-charges read in
  non local Contribution for L=           1  read in
    real space projection operators read in
  non local Contribution for L=           1  read in
    real space projection operators read in
  non local Contribution for L=           2  read in
    real space projection operators read in
  non local Contribution for L=           2  read in
    real space projection operators read in
  non local Contribution for L=           0  read in
    real space projection operators read in
  non local Contribution for L=           0  read in
    real space projection operators read in
    PAW grid and wavefunctions read in
 
   number of l-projection  operators is LMAX  =           6
   number of lm-projection operators is LMMAX =          18
 
 POTCAR:    PAW_PBE W_sv 04Sep2015                
   SHA256 =  931c2d770f65867ef30f3db3421922900fc0890ebac5c3e12f63b6a2064023d7 W_sv/POTCAR           
   COPYR  = (c) Copyright 04Sep2015 Georg Kresse                                                    
   COPYR  = This file is part of the software VASP. Any use, copying, and all other rights are regul
   COPYR  = If you do not have a valid VASP license, you may not use, copy or distribute this file. 
   VRHFIN =W : 5p6s5d                                                                               
   LEXCH  = PE                                                                                      
   EATOM  =  1865.5791 eV,  137.1162 Ry                                                             
                                                                                                    
   TITEL  = PAW_PBE W_sv 04Sep2015                                                                  
   LULTRA =        F    use ultrasoft PP ?                                                          
   IUNSCR =        1    unscreen: 0-lin 1-nonlin 2-no                                               
   RPACOR =    2.330    partial core radius                                                         
   POMASS =  183.850; ZVAL   =   14.000    mass and valenz                                          
   RCORE  =    2.500    outmost cutoff radius                                                       
   RWIGS  =    2.750; RWIGS  =    1.455    wigner-seitz radius (au A)                               
   ENMAX  =  223.057; ENMIN  =  167.293 eV                                                          
   ICORE  =        3    local potential                                                             
   LCOR   =        T    correct aug charges                                                         
   LPAW   =        T    paw PP                                                                      
   EAUG   =  373.438                                                                                
   DEXC   =    0.000                                                                                
   RMAX   =    2.565    core radius for proj-oper                                                   
   RAUG   =    1.300    factor for augmentation sphere                                              
   RDEP   =    2.539    radius for radial grids                                                     
   RDEPT  =    2.126    core radius for aug-charge                                                  
                                                                                                    
   Atomic configuration                                                                             
   15 entries                                                                                       
     n  l   j            E        occ.                                                              
     1  0  0.50    -69465.5834   2.0000                                                             
     2  0  0.50    -11986.2640   2.0000                                                             
     2  1  1.50    -10479.8613   6.0000                                                             
     3  0  0.50     -2759.0756   2.0000                                                             
     3  1  1.50     -2313.1855   6.0000                                                             
     3  2  2.50     -1801.1183  10.0000                                                             
     4  0  0.50      -567.6789   2.0000                                                             
     4  1  1.50      -421.4692   6.0000                                                             
     4  2  2.50      -236.3471  10.0000                                                             
     4  3  3.50       -31.2665  14.0000                                                             
     5  0  0.50       -77.1084   2.0000                                                             
     6  0  0.50        -5.1438   1.0000                                                             
     5  1  1.50       -41.3856   6.0000                                                             
     5  2  2.50        -3.3185   5.0000                                                             
     5  3  2.50        -1.3606   0.0000                                                             
   Description                                                                                      
     l       E           TYP  RCUT    TYP  RCUT                                                     
     0    -77.1084470     23  2.100                                                                 
     0     -5.1437956     23  2.300                                                                 
     1    -41.3855615     23  2.500                                                                 
     1     -2.7211652     23  2.500                                                                 
     2     -3.3185025     23  2.500                                                                 
     2     -1.5965151     23  2.500                                                                 
     3     -1.3605826     23  2.500                                                                 
  local pseudopotential read in
  partial core-charges read in
  partial kinetic energy density read in
  kinetic energy density of atom read in
  atomic valenz-charges read in
  non local Contribution for L=           0  read in
    real space projection operators read in
  non local Contribution for L=           0  read in
    real space projection operators read in
  non local Contribution for L=           1  read in
    real space projection operators read in
  non local Contribution for L=           1  read in
    real space projection operators read in
  non local Contribution for L=           2  read in
    real space projection operators read in
  non local Contribution for L=           2  read in
    real space projection operators read in
    PAW grid and wavefunctions read in
 
   number of l-projection  operators is LMAX  =           6
   number of lm-projection operators is LMMAX =          18
 
 -----------------------------------------------------------------------------
|                                                                             |
|               ----> ADVICE to this user running VASP <----                  |
|                                                                             |
|     You have a (more or less) 'large supercell' and for larger cells it     |
|     might be more efficient to use real-space projection operators.         |
|     Therefore, try LREAL= Auto in the INCAR file.                           |
|     Mind: For very accurate calculation, you might also keep the            |
|     reciprocal projection scheme (i.e. LREAL=.FALSE.).                      |
|                                                                             |
 -----------------------------------------------------------------------------

  PAW_PBE Nb_sv 25May2007               :
 energy of atom  1       EATOM=-1555.1913
 kinetic energy error for atom=    0.2155 (will be added to EATOM!!)
  PAW_PBE Mo_sv 02Feb2006               :
 energy of atom  2       EATOM=-1862.2866
 kinetic energy error for atom=    0.1102 (will be added to EATOM!!)
  PAW_PBE Ta_pv 07Sep2000               :
 energy of atom  3       EATOM=-1047.1984
 kinetic energy error for atom=    0.0394 (will be added to EATOM!!)
  PAW_PBE W_sv 04Sep2015                :
 energy of atom  4       EATOM=-1865.5791
 kinetic energy error for atom=    0.0589 (will be added to EATOM!!)
 
 
 POSCAR: Nb-Mo-Ta-W alloy
  positions in direct lattice
  No initial velocities read in
 exchange correlation table for  LEXCH =        8
   RHO(1)=    0.500       N(1)  =     2000
   RHO(2)=  100.500       N(2)  =     4000
 


--------------------------------------------------------------------------------------------------------


 ion  position               nearest neighbor table
   1  0.875  0.625  0.625-  27 2.85  45 2.85  54 2.85  70 2.85 104 2.85 110 2.85 116 2.85 117 2.85

   2  0.875  0.125  0.375-  11 2.85  14 2.85  33 2.85  48 2.85  49 2.85  66 2.85  87 2.85 106 2.85
                            93 3.29
   3  0.875  0.875  0.625-  44 2.85  45 2.85  54 2.85  66 2.85  70 2.85  85 2.85  87 2.85 104 2.85
                            84 3.29
   4  0.000  0.750  0.250-  39 2.85  75 2.85  78 2.85  92 2.85 101 2.85 107 2.85 113 2.85 125 2.85
                            76 3.29
   5  0.250  0.750  0.500-   6 2.85  29 2.85  52 2.85  78 2.85  81 2.85  84 2.85 113 2.85 122 2.85
                            76 3.29  79 3.29
   6  0.125  0.625  0.625-   5 2.85  16 2.85  26 2.85  54 2.85  79 2.85 104 2.85 116 2.85 117 2.85
                            84 3.29  78 3.29
   7  0.500  0.750  0.250-  23 2.85  29 2.85  32 2.85  63 2.85  72 2.85 115 2.85 122 2.85 124 2.85
                            76 3.29  71 3.29
   8  0.625  0.625  0.625-  13 2.85  27 2.85  45 2.85  61 2.85  70 2.85  73 2.85 102 2.85 110 2.85

   9  0.625  0.625  0.875-  13 2.85  27 2.85  64 2.85  67 2.85  70 2.85  71 2.85  88 2.85 102 2.85

  10  0.625  0.125  0.875-  18 2.85  21 2.85  34 2.85  43 2.85  44 2.85  47 2.85  60 2.85 123 2.85

  11  0.000  0.250  0.250-   2 2.85  24 2.85  41 2.85  58 2.85  69 2.85  83 2.85  89 2.85 112 2.85

  12  0.375  0.375  0.375-  16 2.85  20 2.85  25 2.85  35 2.85  68 2.85  73 2.85  82 2.85  99 2.85
                            91 3.29  83 3.29
  13  0.500  0.500  0.750-   8 2.85   9 2.85  22 2.85  42 2.85  51 2.85  52 2.85  74 2.85 126 2.85
                            73 3.29
  14  0.000  0.000  0.250-   2 2.85  39 2.85  41 2.85  58 2.85  69 2.85  92 2.85 113 2.85 125 2.85
                            87 3.29
  15  0.250  0.000  0.000-  41 2.85  53 2.85  72 2.85  80 2.85  92 2.85  94 2.85 100 2.85 103 2.85
                            77 3.29  90 3.29
  16  0.250  0.500  0.500-   6 2.85  12 2.85  22 2.85  29 2.85  52 2.85  78 2.85  83 2.85 128 2.85
                            73 3.29
  17  0.125  0.125  0.625-  33 2.85  40 2.85  59 2.85  77 2.85  85 2.85  87 2.85  99 2.85 121 2.85
                            84 3.29
  18  0.500  0.250  0.000-  10 2.85  42 2.85  53 2.85  74 2.85  94 2.85  95 2.85 105 2.85 108 2.85
                            82 3.29
  19  0.000  0.500  0.000-  24 2.85  50 2.85  75 2.85  89 2.85 101 2.85 114 2.85 118 2.85 127 2.85
                            88 3.29
  20  0.250  0.500  0.250-  12 2.85  24 2.85  29 2.85  63 2.85  75 2.85  78 2.85  83 2.85 108 2.85
                            76 3.29
  21  0.500  0.000  0.750-  10 2.85  38 2.85  56 2.85  62 2.85  81 2.85  94 2.85 100 2.85 109 2.85
                            86 3.29  77 3.29
  22  0.375  0.375  0.625-  13 2.85  16 2.85  26 2.85  35 2.85  59 2.85  60 2.85  73 2.85  99 2.85
                            74 3.29
  23  0.625  0.625  0.125-   7 2.85  25 2.85  36 2.85  55 2.85  64 2.85  67 2.85  71 2.85  88 2.85

  24  0.125  0.375  0.125-  11 2.85  19 2.85  20 2.85  46 2.85  65 2.85  68 2.85  98 2.85 111 2.85
                            89 3.29  75 3.29  83 3.29
  25  0.500  0.500  0.250-  12 2.85  23 2.85  29 2.85  63 2.85  91 2.85  95 2.85 108 2.85 115 2.85
                            73 3.29  82 3.29
  26  0.250  0.500  0.750-   6 2.85  22 2.85  50 2.85  52 2.85  74 2.85 126 2.85 127 2.85 128 2.85
                            79 3.29
  27  0.750  0.500  0.750-   1 2.85   8 2.85   9 2.85  28 2.85  42 2.85  51 2.85 114 2.85 118 2.85
                            70 3.29  88 3.29
  28  0.875  0.375  0.625-  27 2.85  33 2.85 106 2.85 110 2.85 116 2.85 117 2.85 121 2.85 123 2.85

  29  0.375  0.625  0.375-   5 2.85   7 2.85  16 2.85  20 2.85  25 2.85  61 2.85  73 2.85  76 2.85
                            78 3.29
  30  0.875  0.125  0.875-  34 2.85  44 2.85  47 2.85  65 2.85  85 2.85 120 2.85 121 2.85 123 2.85

  31  0.250  0.000  0.250-  37 2.85  41 2.85  53 2.85  58 2.85  72 2.85  92 2.85 113 2.85 122 2.85
                            76 3.29
  32  0.625  0.875  0.375-   7 2.85  36 2.85  45 2.85  48 2.85  61 2.85  66 2.85  86 2.85  96 2.85
                            93 3.29
  33  0.000  0.250  0.500-   2 2.85  17 2.85  28 2.85  58 2.85  83 2.85  97 2.85 112 2.85 128 2.85
                            87 3.29
  34  0.750  0.000  0.000-  10 2.85  30 2.85  39 2.85  56 2.85  69 2.85 105 2.85 119 2.85 124 2.85

  35  0.500  0.250  0.500-  12 2.85  22 2.85  37 2.85  38 2.85  51 2.85  91 2.85  93 2.85 109 2.85
                            73 3.29  82 3.29  86 3.29
  36  0.750  0.750  0.250-  23 2.85  32 2.85  39 2.85 101 2.85 107 2.85 115 2.85 124 2.85 125 2.85
                            48 3.29  55 3.29  64 3.29  45 3.29
  37  0.375  0.125  0.375-  31 2.85  35 2.85  40 2.85  68 2.85  82 2.85  86 2.85  96 2.85  99 2.85
                            93 3.29  58 3.29  53 3.29 109 3.29 122 3.29
  38  0.625  0.125  0.625-  21 2.85  35 2.85  44 2.85  60 2.85  66 2.85  86 2.85 106 2.85 123 2.85
                            93 3.29  97 3.29  51 3.29 109 3.29  62 3.29
  39  0.875  0.875  0.125-   4 2.85  14 2.85  34 2.85  36 2.85  48 2.85  57 2.85  64 2.85 120 2.85
                            92 3.29 101 3.29 119 3.29  69 3.29 124 3.29 125 3.29
  40  0.250  0.000  0.500-  17 2.85  37 2.85  58 2.85  81 2.85  84 2.85 109 2.85 113 2.85 122 2.85
                            99 3.29  77 3.29  86 3.29  87 3.29
  41  0.125  0.125  0.125-  11 2.85  14 2.85  15 2.85  31 2.85  65 2.85  68 2.85 111 2.85 120 2.85
                            69 3.29  92 3.29 103 3.29  53 3.29  58 3.29
  42  0.625  0.375  0.875-  13 2.85  18 2.85  27 2.85  47 2.85  60 2.85  67 2.85  88 2.85 123 2.85
                            51 3.29  95 3.29 114 3.29  74 3.29
  43  0.500  0.000  0.000-  10 2.85  53 2.85  56 2.85  72 2.85  94 2.85 100 2.85 105 2.85 124 2.85
                            96 3.29  71 3.29
  44  0.750  0.000  0.750-   3 2.85  10 2.85  30 2.85  38 2.85  56 2.85  62 2.85  97 2.85 119 2.85
                            85 3.29  66 3.29  70 3.29 123 3.29
  45  0.750  0.750  0.500-   1 2.85   3 2.85   8 2.85  32 2.85  62 2.85 107 2.85 115 2.85 125 2.85
                            66 3.29  70 3.29  54 3.29 110 3.29  61 3.29  36 3.29
  46  0.250  0.500  0.000-  24 2.85  50 2.85  63 2.85  74 2.85  75 2.85 108 2.85 126 2.85 127 2.85
                           111 3.29  90 3.29  67 3.29
  47  0.750  0.250  0.000-  10 2.85  30 2.85  42 2.85  69 2.85  89 2.85  95 2.85 105 2.85 114 2.85
                            49 3.29  88 3.29  65 3.29 123 3.29
  48  0.750  0.000  0.250-   2 2.85  32 2.85  39 2.85  69 2.85  93 2.85 105 2.85 124 2.85 125 2.85
                            96 3.29  66 3.29  36 3.29  49 3.29
  49  0.750  0.250  0.250-   2 2.85  69 2.85  89 2.85  91 2.85  93 2.85  95 2.85 105 2.85 112 2.85
                            47 3.29  82 3.29  48 3.29 106 3.29  55 3.29
  50  0.125  0.375  0.875-  19 2.85  26 2.85  46 2.85  59 2.85  65 2.85 111 2.85 117 2.85 121 2.85
                           114 3.29 103 3.29  74 3.29 127 3.29 128 3.29
  51  0.625  0.375  0.625-  13 2.85  27 2.85  35 2.85  60 2.85  73 2.85 106 2.85 110 2.85 123 2.85
                            38 3.29  42 3.29  91 3.29
  52  0.375  0.625  0.625-   5 2.85  13 2.85  16 2.85  26 2.85  61 2.85  73 2.85  79 2.85 102 2.85
                            81 3.29 126 3.29
  53  0.375  0.125  0.125-  15 2.85  18 2.85  31 2.85  43 2.85  68 2.85  82 2.85  96 2.85 111 2.85
                            37 3.29  94 3.29  41 3.29 105 3.29 108 3.29  72 3.29
  54  0.000  0.750  0.500-   1 2.85   3 2.85   6 2.85  78 2.85  84 2.85 107 2.85 113 2.85 125 2.85
                            45 3.29  87 3.29 116 3.29 104 3.29
  55  0.750  0.500  0.250-  23 2.85  89 2.85  91 2.85  95 2.85 101 2.85 107 2.85 112 2.85 115 2.85
                            36 3.29  49 3.29 110 3.29  88 3.29  98 3.29
  56  0.625  0.875  0.875-  21 2.85  34 2.85  43 2.85  44 2.85  64 2.85  70 2.85  71 2.85 102 2.85
                           100 3.29  62 3.29 119 3.29 124 3.29
  57  0.000  0.750  0.000-  39 2.85  75 2.85  80 2.85  92 2.85 101 2.85 118 2.85 119 2.85 127 2.85
                            64 3.29  90 3.29 120 3.29 104 3.29
  58  0.125  0.125  0.375-  11 2.85  14 2.85  31 2.85  33 2.85  40 2.85  68 2.85  87 2.85  99 2.85
                            83 3.29  41 3.29  37 3.29 113 3.29
  59  0.250  0.250  0.750-  17 2.85  22 2.85  50 2.85  74 2.85  94 2.85 103 2.85 109 2.85 128 2.85
                            77 3.29  60 3.29 111 3.29 121 3.29  99 3.29
  60  0.500  0.250  0.750-  10 2.85  22 2.85  38 2.85  42 2.85  51 2.85  74 2.85  94 2.85 109 2.85
                            59 3.29 123 3.29
  61  0.500  0.750  0.500-   8 2.85  29 2.85  32 2.85  52 2.85  62 2.85  81 2.85 115 2.85 122 2.85
                            86 3.29 102 3.29  73 3.29  45 3.29
  62  0.625  0.875  0.625-  21 2.85  44 2.85  45 2.85  61 2.85  66 2.85  70 2.85  86 2.85 102 2.85
                            81 3.29  56 3.29  38 3.29
  63  0.375  0.625  0.125-   7 2.85  20 2.85  25 2.85  46 2.85  67 2.85  71 2.85  76 2.85  90 2.85
                            72 3.29  75 3.29 108 3.29 126 3.29
  64  0.750  0.750  0.000-   9 2.85  23 2.85  39 2.85  56 2.85 101 2.85 118 2.85 119 2.85 124 2.85
                            88 3.29  36 3.29  57 3.29  70 3.29  71 3.29
  65  0.000  0.250  0.000-  24 2.85  30 2.85  41 2.85  50 2.85  69 2.85  89 2.85 103 2.85 114 2.85
                           111 3.29  47 3.29 120 3.29 121 3.29
  66  0.750  0.000  0.500-   2 2.85   3 2.85  32 2.85  38 2.85  62 2.85  93 2.85  97 2.85 125 2.85
                            86 3.29  87 3.29  45 3.29  48 3.29 106 3.29  44 3.29
  67  0.500  0.500  0.000-   9 2.85  23 2.85  42 2.85  63 2.85  74 2.85  95 2.85 108 2.85 126 2.85
                            71 3.29  46 3.29  88 3.29
  68  0.250  0.250  0.250-  12 2.85  24 2.85  37 2.85  41 2.85  53 2.85  58 2.85  83 2.85 108 2.85
                            99 3.29  82 3.29 111 3.29
  69  0.875  0.125  0.125-  11 2.85  14 2.85  34 2.85  47 2.85  48 2.85  49 2.85  65 2.85 120 2.85
                            41 3.29  89 3.29 105 3.29  39 3.29
  70  0.750  0.750  0.750-   1 2.85   3 2.85   8 2.85   9 2.85  56 2.85  62 2.85 118 2.85 119 2.85
                            44 3.29  64 3.29 102 3.29 104 3.29  45 3.29  27 3.29
  71  0.500  0.750  0.000-   9 2.85  23 2.85  56 2.85  63 2.85  72 2.85 100 2.85 124 2.85 126 2.85
                             7 3.29  90 3.29  43 3.29 102 3.29  64 3.29  67 3.29
  72  0.375  0.875  0.125-   7 2.85  15 2.85  31 2.85  43 2.85  71 2.85  76 2.85  90 2.85  96 2.85
                            53 3.29  92 3.29  63 3.29 100 3.29 122 3.29 124 3.29
  73  0.500  0.500  0.500-   8 2.85  12 2.85  22 2.85  29 2.85  51 2.85  52 2.85  91 2.85 115 2.85
                            13 3.29  25 3.29  61 3.29  16 3.29 110 3.29  35 3.29
  74  0.375  0.375  0.875-  13 2.85  18 2.85  26 2.85  46 2.85  59 2.85  60 2.85  67 2.85 111 2.85
                            22 3.29  50 3.29  94 3.29 108 3.29  42 3.29 126 3.29
  75  0.125  0.625  0.125-   4 2.85  19 2.85  20 2.85  46 2.85  57 2.85  76 2.85  90 2.85  98 2.85
                            78 3.29  63 3.29  92 3.29  24 3.29 101 3.29 127 3.29
  76  0.250  0.750  0.250-  29 2.85  63 2.85  72 2.85  75 2.85  78 2.85  92 2.85 113 2.85 122 2.85
                            20 3.29   4 3.29  90 3.29  31 3.29   5 3.29   7 3.29
  77  0.250  0.000  0.750-  17 2.85  80 2.85  81 2.85  84 2.85  94 2.85 100 2.85 103 2.85 109 2.85
                            40 3.29  85 3.29  59 3.29  79 3.29  15 3.29  21 3.29
  78  0.125  0.625  0.375-   4 2.85   5 2.85  16 2.85  20 2.85  54 2.85  76 2.85  98 2.85 116 2.85
                            29 3.29  83 3.29   6 3.29 107 3.29 113 3.29  75 3.29
  79  0.250  0.750  0.750-   6 2.85  52 2.85  80 2.85  81 2.85  84 2.85 100 2.85 126 2.85 127 2.85
                            90 3.29  26 3.29 102 3.29 104 3.29   5 3.29  77 3.29
  80  0.125  0.875  0.875-  15 2.85  57 2.85  77 2.85  79 2.85  85 2.85  90 2.85 104 2.85 120 2.85
                           100 3.29 103 3.29  84 3.29 119 3.29  92 3.29 127 3.29
  81  0.375  0.875  0.625-   5 2.85  21 2.85  40 2.85  61 2.85  77 2.85  79 2.85  86 2.85 102 2.85
                            84 3.29  52 3.29 100 3.29  62 3.29 109 3.29 122 3.29
  82  0.500  0.250  0.250-  12 2.85  37 2.85  53 2.85  91 2.85  93 2.85  95 2.85 105 2.85 108 2.85
                            35 3.29  18 3.29  49 3.29  96 3.29  25 3.29  68 3.29
  83  0.125  0.375  0.375-  11 2.85  16 2.85  20 2.85  33 2.85  68 2.85  98 2.85  99 2.85 116 2.85
                            78 3.29  12 3.29  58 3.29 112 3.29  24 3.29 128 3.29
  84  0.125  0.875  0.625-   5 2.85  40 2.85  54 2.85  77 2.85  79 2.85  85 2.85  87 2.85 104 2.85
                            80 3.29  81 3.29   6 3.29  17 3.29   3 3.29 113 3.29
  85  0.000  0.000  0.750-   3 2.85  17 2.85  30 2.85  80 2.85  84 2.85  97 2.85 103 2.85 119 2.85
                            44 3.29  77 3.29 104 3.29  87 3.29 120 3.29 121 3.29
  86  0.500  0.000  0.500-  32 2.85  37 2.85  38 2.85  62 2.85  81 2.85  93 2.85 109 2.85 122 2.85
                            66 3.29  35 3.29  40 3.29  96 3.29  61 3.29  21 3.29
  87  0.000  0.000  0.500-   2 2.85   3 2.85  17 2.85  58 2.85  84 2.85  97 2.85 113 2.85 125 2.85
                            66 3.29  33 3.29  85 3.29  40 3.29  54 3.29  14 3.29
  88  0.750  0.500  0.000-   9 2.85  23 2.85  42 2.85  89 2.85  95 2.85 101 2.85 114 2.85 118 2.85
                            67 3.29  27 3.29  19 3.29  47 3.29  55 3.29  64 3.29
  89  0.875  0.375  0.125-  11 2.85  19 2.85  47 2.85  49 2.85  55 2.85  65 2.85  88 2.85  98 2.85
                            24 3.29  95 3.29  69 3.29 101 3.29 112 3.29 114 3.29
  90  0.250  0.750  0.000-  63 2.85  72 2.85  75 2.85  80 2.85  92 2.85 100 2.85 126 2.85 127 2.85
                            79 3.29  15 3.29  71 3.29  46 3.29  57 3.29  76 3.29
  91  0.625  0.375  0.375-  25 2.85  35 2.85  49 2.85  55 2.85  73 2.85  82 2.85 106 2.85 110 2.85
                            93 3.29  95 3.29  51 3.29  12 3.29 112 3.29 115 3.29
  92  0.125  0.875  0.125-   4 2.85  14 2.85  15 2.85  31 2.85  57 2.85  76 2.85  90 2.85 120 2.85
                            75 3.29  41 3.29  80 3.29  39 3.29 113 3.29  72 3.29
  93  0.625  0.125  0.375-  35 2.85  48 2.85  49 2.85  66 2.85  82 2.85  86 2.85  96 2.85 106 2.85
                            38 3.29  32 3.29  91 3.29   2 3.29 105 3.29  37 3.29
  94  0.375  0.125  0.875-  15 2.85  18 2.85  21 2.85  43 2.85  59 2.85  60 2.85  77 2.85 111 2.85
                            53 3.29 100 3.29 103 3.29 109 3.29  74 3.29
  95  0.625  0.375  0.125-  18 2.85  25 2.85  47 2.85  49 2.85  55 2.85  67 2.85  82 2.85  88 2.85
                            42 3.29  89 3.29  91 3.29 105 3.29 108 3.29
  96  0.500  0.000  0.250-  32 2.85  37 2.85  53 2.85  72 2.85  93 2.85 105 2.85 122 2.85 124 2.85
                            43 3.29  48 3.29  82 3.29  86 3.29
  97  0.875  0.125  0.625-  33 2.85  44 2.85  66 2.85  85 2.85  87 2.85 106 2.85 121 2.85 123 2.85
                            38 3.29
  98  0.000  0.500  0.250-  24 2.85  75 2.85  78 2.85  83 2.85  89 2.85 101 2.85 107 2.85 112 2.85
                            55 3.29 116 3.29
  99  0.250  0.250  0.500-  12 2.85  17 2.85  22 2.85  37 2.85  58 2.85  83 2.85 109 2.85 128 2.85
                            40 3.29  59 3.29  68 3.29
 100  0.375  0.875  0.875-  15 2.85  21 2.85  43 2.85  71 2.85  77 2.85  79 2.85  90 2.85 102 2.85
                            80 3.29  81 3.29  56 3.29  94 3.29  72 3.29 126 3.29
 101  0.875  0.625  0.125-   4 2.85  19 2.85  36 2.85  55 2.85  57 2.85  64 2.85  88 2.85  98 2.85
                            39 3.29  89 3.29  75 3.29 107 3.29 118 3.29
 102  0.500  0.750  0.750-   8 2.85   9 2.85  52 2.85  56 2.85  62 2.85  81 2.85 100 2.85 126 2.85
                            79 3.29  61 3.29  70 3.29  71 3.29
 103  0.125  0.125  0.875-  15 2.85  59 2.85  65 2.85  77 2.85  85 2.85 111 2.85 120 2.85 121 2.85
                            94 3.29  41 3.29  80 3.29  50 3.29
 104  0.000  0.750  0.750-   1 2.85   3 2.85   6 2.85  80 2.85  84 2.85 118 2.85 119 2.85 127 2.85
                            57 3.29  85 3.29 117 3.29  70 3.29  79 3.29  54 3.29
 105  0.625  0.125  0.125-  18 2.85  34 2.85  43 2.85  47 2.85  48 2.85  49 2.85  82 2.85  96 2.85
                            53 3.29  93 3.29  95 3.29  69 3.29 124 3.29
 106  0.750  0.250  0.500-   2 2.85  28 2.85  38 2.85  51 2.85  91 2.85  93 2.85  97 2.85 112 2.85
                            49 3.29 110 3.29  66 3.29 123 3.29
 107  0.875  0.625  0.375-   4 2.85  36 2.85  45 2.85  54 2.85  55 2.85  98 2.85 110 2.85 116 2.85
                            78 3.29 112 3.29 115 3.29 101 3.29 125 3.29
 108  0.375  0.375  0.125-  18 2.85  20 2.85  25 2.85  46 2.85  67 2.85  68 2.85  82 2.85 111 2.85
                            74 3.29  53 3.29  95 3.29  63 3.29
 109  0.375  0.125  0.625-  21 2.85  35 2.85  40 2.85  59 2.85  60 2.85  77 2.85  86 2.85  99 2.85
                            81 3.29  37 3.29  94 3.29  38 3.29
 110  0.750  0.500  0.500-   1 2.85   8 2.85  28 2.85  51 2.85  91 2.85 107 2.85 112 2.85 115 2.85
                           106 3.29  55 3.29  73 3.29  45 3.29 116 3.29
 111  0.250  0.250  0.000-  24 2.85  41 2.85  50 2.85  53 2.85  74 2.85  94 2.85 103 2.85 108 2.85
                            46 3.29  59 3.29  65 3.29  68 3.29
 112  0.875  0.375  0.375-  11 2.85  33 2.85  49 2.85  55 2.85  98 2.85 106 2.85 110 2.85 116 2.85
                            89 3.29 107 3.29  91 3.29  83 3.29
 113  0.125  0.875  0.375-   4 2.85   5 2.85  14 2.85  31 2.85  40 2.85  54 2.85  76 2.85  87 2.85
                            78 3.29  84 3.29  58 3.29  92 3.29 122 3.29 125 3.29
 114  0.875  0.375  0.875-  19 2.85  27 2.85  47 2.85  65 2.85  88 2.85 117 2.85 121 2.85 123 2.85
                            42 3.29 118 3.29  50 3.29  89 3.29
 115  0.625  0.625  0.375-   7 2.85  25 2.85  36 2.85  45 2.85  55 2.85  61 2.85  73 2.85 110 2.85
                           107 3.29  91 3.29
 116  0.000  0.500  0.500-   1 2.85   6 2.85  28 2.85  78 2.85  83 2.85 107 2.85 112 2.85 128 2.85
                           110 3.29  98 3.29 117 3.29  54 3.29
 117  0.000  0.500  0.750-   1 2.85   6 2.85  28 2.85  50 2.85 114 2.85 118 2.85 127 2.85 128 2.85
                           121 3.29 116 3.29 104 3.29
 118  0.875  0.625  0.875-  19 2.85  27 2.85  57 2.85  64 2.85  70 2.85  88 2.85 104 2.85 117 2.85
                           114 3.29 101 3.29 119 3.29 127 3.29
 119  0.875  0.875  0.875-  34 2.85  44 2.85  57 2.85  64 2.85  70 2.85  85 2.85 104 2.85 120 2.85
                            56 3.29  39 3.29 118 3.29  80 3.29
 120  0.000  0.000  0.000-  30 2.85  39 2.85  41 2.85  69 2.85  80 2.85  92 2.85 103 2.85 119 2.85
                            57 3.29  65 3.29  85 3.29
 121  0.000  0.250  0.750-  17 2.85  28 2.85  30 2.85  50 2.85  97 2.85 103 2.85 114 2.85 128 2.85
                            65 3.29  85 3.29 117 3.29 123 3.29  59 3.29
 122  0.375  0.875  0.375-   5 2.85   7 2.85  31 2.85  40 2.85  61 2.85  76 2.85  86 2.85  96 2.85
                            81 3.29  72 3.29  37 3.29 113 3.29
 123  0.750  0.250  0.750-  10 2.85  28 2.85  30 2.85  38 2.85  42 2.85  51 2.85  97 2.85 114 2.85
                            60 3.29  47 3.29 106 3.29  44 3.29 121 3.29
 124  0.625  0.875  0.125-   7 2.85  34 2.85  36 2.85  43 2.85  48 2.85  64 2.85  71 2.85  96 2.85
                            56 3.29  72 3.29  39 3.29 105 3.29
 125  0.875  0.875  0.375-   4 2.85  14 2.85  36 2.85  45 2.85  48 2.85  54 2.85  66 2.85  87 2.85
                            39 3.29 107 3.29 113 3.29
 126  0.375  0.625  0.875-  13 2.85  26 2.85  46 2.85  67 2.85  71 2.85  79 2.85  90 2.85 102 2.85
                            52 3.29  63 3.29 100 3.29  74 3.29 127 3.29
 127  0.125  0.625  0.875-  19 2.85  26 2.85  46 2.85  57 2.85  79 2.85  90 2.85 104 2.85 117 2.85
                            75 3.29  50 3.29  80 3.29 118 3.29 126 3.29
 128  0.125  0.375  0.625-  16 2.85  26 2.85  33 2.85  59 2.85  99 2.85 116 2.85 117 2.85 121 2.85
                            50 3.29  83 3.29
 
  LATTYP: Found a simple cubic cell.
 ALAT       =    13.1600000000
  
  Lattice vectors:
  
 A1 = (  13.1600000000,   0.0000000000,   0.0000000000)
 A2 = (   0.0000000000,  13.1600000000,   0.0000000000)
 A3 = (   0.0000000000,   0.0000000000,  13.1600000000)


Analysis of symmetry for initial positions (statically):
=====================================================================
 Subroutine PRICEL returns:
 Original cell was already a primitive cell.
 

 Routine SETGRP: Setting up the symmetry group for a 
 simple cubic supercell.


 Subroutine GETGRP returns: Found  1 space group operations
 (whereof  1 operations were pure point group operations)
 out of a pool of 48 trial point group operations.


The static configuration has the point symmetry C_1 .


Analysis of symmetry for dynamics (positions and initial velocities):
=====================================================================
 Subroutine PRICEL returns:
 Original cell was already a primitive cell.
 

 Routine SETGRP: Setting up the symmetry group for a 
 simple cubic supercell.


 Subroutine GETGRP returns: Found  1 space group operations
 (whereof  1 operations were pure point group operations)
 out of a pool of 48 trial point group operations.


The dynamic configuration has the point symmetry C_1 .


 Subroutine INISYM returns: Found  1 space group operations
 (whereof  1 operations are pure point group operations),
 and found     1 'primitive' translations


----------------------------------------------------------------------------------------

                                     Primitive cell                                     

  volume of cell :    2279.1225

  direct lattice vectors                    reciprocal lattice vectors
    13.160000000  0.000000000  0.000000000     0.075987842  0.000000000  0.000000000
     0.000000000 13.160000000  0.000000000     0.000000000  0.075987842  0.000000000
     0.000000000  0.000000000 13.160000000     0.000000000  0.000000000  0.075987842

  length of vectors
    13.160000000 13.160000000 13.160000000     0.075987842  0.075987842  0.075987842

  position of ions in fractional coordinates (direct lattice)
     0.875000000  0.625000000  0.625000000
     0.875000000  0.125000000  0.375000000
     0.875000000  0.875000000  0.625000000
     0.000000000  0.750000000  0.250000000
     0.250000000  0.750000000  0.500000000
     0.125000000  0.625000000  0.625000000
     0.500000000  0.750000000  0.250000000
     0.625000000  0.625000000  0.625000000
     0.625000000  0.625000000  0.875000000
     0.625000000  0.125000000  0.875000000
     0.000000000  0.250000000  0.250000000
     0.375000000  0.375000000  0.375000000
     0.500000000  0.500000000  0.750000000
     0.000000000  0.000000000  0.250000000
     0.250000000  0.000000000  0.000000000
     0.250000000  0.500000000  0.500000000
     0.125000000  0.125000000  0.625000000
     0.500000000  0.250000000  0.000000000
     0.000000000  0.500000000  0.000000000
     0.250000000  0.500000000  0.250000000
     0.500000000  0.000000000  0.750000000
     0.375000000  0.375000000  0.625000000
     0.625000000  0.625000000  0.125000000
     0.125000000  0.375000000  0.125000000
     0.500000000  0.500000000  0.250000000
     0.250000000  0.500000000  0.750000000
     0.750000000  0.500000000  0.750000000
     0.875000000  0.375000000  0.625000000
     0.375000000  0.625000000  0.375000000
     0.875000000  0.125000000  0.875000000
     0.250000000  0.000000000  0.250000000
     0.625000000  0.875000000  0.375000000
     0.000000000  0.250000000  0.500000000
     0.750000000  0.000000000  0.000000000
     0.500000000  0.250000000  0.500000000
     0.750000000  0.750000000  0.250000000
     0.375000000  0.125000000  0.375000000
     0.625000000  0.125000000  0.625000000
     0.875000000  0.875000000  0.125000000
     0.250000000  0.000000000  0.500000000
     0.125000000  0.125000000  0.125000000
     0.625000000  0.375000000  0.875000000
     0.500000000  0.000000000  0.000000000
     0.750000000  0.000000000  0.750000000
     0.750000000  0.750000000  0.500000000
     0.250000000  0.500000000  0.000000000
     0.750000000  0.250000000  0.000000000
     0.750000000  0.000000000  0.250000000
     0.750000000  0.250000000  0.250000000
     0.125000000  0.375000000  0.875000000
     0.625000000  0.375000000  0.625000000
     0.375000000  0.625000000  0.625000000
     0.375000000  0.125000000  0.125000000
     0.000000000  0.750000000  0.500000000
     0.750000000  0.500000000  0.250000000
     0.625000000  0.875000000  0.875000000
     0.000000000  0.750000000  0.000000000
     0.125000000  0.125000000  0.375000000
     0.250000000  0.250000000  0.750000000
     0.500000000  0.250000000  0.750000000
     0.500000000  0.750000000  0.500000000
     0.625000000  0.875000000  0.625000000
     0.375000000  0.625000000  0.125000000
     0.750000000  0.750000000  0.000000000
     0.000000000  0.250000000  0.000000000
     0.750000000  0.000000000  0.500000000
     0.500000000  0.500000000  0.000000000
     0.250000000  0.250000000  0.250000000
     0.875000000  0.125000000  0.125000000
     0.750000000  0.750000000  0.750000000
     0.500000000  0.750000000  0.000000000
     0.375000000  0.875000000  0.125000000
     0.500000000  0.500000000  0.500000000
     0.375000000  0.375000000  0.875000000
     0.125000000  0.625000000  0.125000000
     0.250000000  0.750000000  0.250000000
     0.250000000  0.000000000  0.750000000
     0.125000000  0.625000000  0.375000000
     0.250000000  0.750000000  0.750000000
     0.125000000  0.875000000  0.875000000
     0.375000000  0.875000000  0.625000000
     0.500000000  0.250000000  0.250000000
     0.125000000  0.375000000  0.375000000
     0.125000000  0.875000000  0.625000000
     0.000000000  0.000000000  0.750000000
     0.500000000  0.000000000  0.500000000
     0.000000000  0.000000000  0.500000000
     0.750000000  0.500000000  0.000000000
     0.875000000  0.375000000  0.125000000
     0.250000000  0.750000000  0.000000000
     0.625000000  0.375000000  0.375000000
     0.125000000  0.875000000  0.125000000
     0.625000000  0.125000000  0.375000000
     0.375000000  0.125000000  0.875000000
     0.625000000  0.375000000  0.125000000
     0.500000000  0.000000000  0.250000000
     0.875000000  0.125000000  0.625000000
     0.000000000  0.500000000  0.250000000
     0.250000000  0.250000000  0.500000000
     0.375000000  0.875000000  0.875000000
     0.875000000  0.625000000  0.125000000
     0.500000000  0.750000000  0.750000000
     0.125000000  0.125000000  0.875000000
     0.000000000  0.750000000  0.750000000
     0.625000000  0.125000000  0.125000000
     0.750000000  0.250000000  0.500000000
     0.875000000  0.625000000  0.375000000
     0.375000000  0.375000000  0.125000000
     0.375000000  0.125000000  0.625000000
     0.750000000  0.500000000  0.500000000
     0.250000000  0.250000000  0.000000000
     0.875000000  0.375000000  0.375000000
     0.125000000  0.875000000  0.375000000
     0.875000000  0.375000000  0.875000000
     0.625000000  0.625000000  0.375000000
     0.000000000  0.500000000  0.500000000
     0.000000000  0.500000000  0.750000000
     0.875000000  0.625000000  0.875000000
     0.875000000  0.875000000  0.875000000
     0.000000000  0.000000000  0.000000000
     0.000000000  0.250000000  0.750000000
     0.375000000  0.875000000  0.375000000
     0.750000000  0.250000000  0.750000000
     0.625000000  0.875000000  0.125000000
     0.875000000  0.875000000  0.375000000
     0.375000000  0.625000000  0.875000000
     0.125000000  0.625000000  0.875000000
     0.125000000  0.375000000  0.625000000

  ion indices of the primitive-cell ions
   primitive index   ion index
                 1           1
                 2           2
                 3           3
                 4           4
                 5           5
                 6           6
                 7           7
                 8           8
                 9           9
                10          10
                11          11
                12          12
                13          13
                14          14
                15          15
                16          16
                17          17
                18          18
                19          19
                20          20
                21          21
                22          22
                23          23
                24          24
                25          25
                26          26
                27          27
                28          28
                29          29
                30          30
                31          31
                32          32
                33          33
                34          34
                35          35
                36          36
                37          37
                38          38
                39          39
                40          40
                41          41
                42          42
                43          43
                44          44
                45          45
                46          46
                47          47
                48          48
                49          49
                50          50
                51          51
                52          52
                53          53
                54          54
                55          55
                56          56
                57          57
                58          58
                59          59
                60          60
                61          61
                62          62
                63          63
                64          64
                65          65
                66          66
                67          67
                68          68
                69          69
                70          70
                71          71
                72          72
                73          73
                74          74
                75          75
                76          76
                77          77
                78          78
                79          79
                80          80
                81          81
                82          82
                83          83
                84          84
                85          85
                86          86
                87          87
                88          88
                89          89
                90          90
                91          91
                92          92
                93          93
                94          94
                95          95
                96          96
                97          97
                98          98
                99          99
               100         100
               101         101
               102         102
               103         103
               104         104
               105         105
               106         106
               107         107
               108         108
               109         109
               110         110
               111         111
               112         112
               113         113
               114         114
               115         115
               116         116
               117         117
               118         118
               119         119
               120         120
               121         121
               122         122
               123         123
               124         124
               125         125
               126         126
               127         127
               128         128

----------------------------------------------------------------------------------------

 
 
 KPOINTS: K-Spacing Value to Generate K-Mesh: 0.03

Automatic generation of k-mesh.
 Grid dimensions read from file:
 generate k-points for:    3    3    3

 Generating k-lattice:

  Cartesian coordinates                     Fractional coordinates (reciprocal lattice)
     0.025329281  0.000000000  0.000000000     0.333333333  0.000000000  0.000000000
     0.000000000  0.025329281  0.000000000     0.000000000  0.333333333  0.000000000
     0.000000000  0.000000000  0.025329281     0.000000000  0.000000000  0.333333333

  Length of vectors
     0.025329281  0.025329281  0.025329281

  Shift w.r.t. Gamma in fractional coordinates (k-lattice)
     0.000000000  0.000000000  0.000000000

 
 Subroutine IBZKPT returns following result:
 ===========================================
 
 Found     14 irreducible k-points:
 
 Following reciprocal coordinates:
            Coordinates               Weight
  0.000000  0.000000  0.000000      1.000000
  0.333333  0.000000  0.000000      2.000000
  0.000000  0.333333  0.000000      2.000000
  0.000000  0.000000  0.333333      2.000000
  0.333333  0.333333  0.000000      2.000000
  0.000000  0.333333  0.333333      2.000000
  0.333333  0.000000  0.333333      2.000000
 -0.333333  0.333333  0.000000      2.000000
 -0.333333  0.000000  0.333333      2.000000
  0.000000 -0.333333  0.333333      2.000000
  0.333333  0.333333  0.333333      2.000000
 -0.333333  0.333333  0.333333      2.000000
 -0.333333 -0.333333  0.333333      2.000000
  0.333333 -0.333333  0.333333      2.000000
 
 Following cartesian coordinates:
            Coordinates               Weight
  0.000000  0.000000  0.000000      1.000000
  0.025329  0.000000  0.000000      2.000000
  0.000000  0.025329  0.000000      2.000000
  0.000000  0.000000  0.025329      2.000000
  0.025329  0.025329  0.000000      2.000000
  0.000000  0.025329  0.025329      2.000000
  0.025329  0.000000  0.025329      2.000000
 -0.025329  0.025329  0.000000      2.000000
 -0.025329  0.000000  0.025329      2.000000
  0.000000 -0.025329  0.025329      2.000000
  0.025329  0.025329  0.025329      2.000000
 -0.025329  0.025329  0.025329      2.000000
 -0.025329 -0.025329  0.025329      2.000000
  0.025329 -0.025329  0.025329      2.000000
 


--------------------------------------------------------------------------------------------------------




 Dimension of arrays:
   k-points           NKPTS =     14   k-points in BZ     NKDIM =     14   number of bands    NBANDS=   1012
   number of dos      NEDOS =    301   number of ions     NIONS =    128
   non local maximal  LDIM  =      6   non local SUM 2l+1 LMDIM =     18
   total plane-waves  NPLWV = 343000
   max r-space proj   IRMAX =      1   max aug-charges    IRDMAX=   8789
   dimension x,y,z NGX =    70 NGY =   70 NGZ =   70
   dimension x,y,z NGXF=   140 NGYF=  140 NGZF=  140
   support grid    NGXF=   140 NGYF=  140 NGZF=  140
   ions per type =              35  34  24  35
   NGX,Y,Z   is equivalent  to a cutoff of   8.84,  8.84,  8.84 a.u.
   NGXF,Y,Z  is equivalent  to a cutoff of  17.69, 17.69, 17.69 a.u.

 SYSTEM =  unknown system                          
 POSCAR =  Nb-Mo-Ta-W alloy                        

 Startparameter for this run:
   NWRITE =      2    write-flag & timer
   PREC   = accura    normal or accurate (medium, high low for compatibility)
   ISTART =      0    job   : 0-new  1-cont  2-samecut
   ICHARG =      2    charge: 1-file 2-atom 10-const
   ISPIN  =      1    spin polarized calculation?
   LNONCOLLINEAR =      F non collinear calculations
   LSORBIT =      F    spin-orbit coupling
   INIWAV =      1    electr: 0-lowe 1-rand  2-diag
   LASPH  =      F    aspherical Exc in radial PAW
 Electronic Relaxation 1
   ENCUT  =  250.0 eV  18.37 Ry    4.29 a.u.  16.97 16.97 16.97*2*pi/ulx,y,z
   ENINI  =  250.0     initial cutoff
   ENAUG  =  455.7 eV  augmentation charge cutoff
   NELM   =     80;   NELMIN=  2; NELMDL= -5     # of ELM steps 
   EDIFF  = 0.1E-07   stopping-criterion for ELM
   LREAL  =      F    real-space projection
   NLSPLINE    = F    spline interpolate recip. space projectors
   LCOMPAT=      F    compatible to vasp.4.4
   GGA_COMPAT  = T    GGA compatible to vasp.4.4-vasp.4.6
   LMAXPAW     = -100 max onsite density
   LMAXMIX     =    2 max onsite mixed and CHGCAR
   VOSKOWN=      0    Vosko Wilk Nusair interpolation
   ROPT   =    0.00000   0.00000   0.00000   0.00000
 Ionic relaxation
   EDIFFG = -.1E-01   stopping-criterion for IOM
   NSW    =      0    number of steps for IOM
   NBLOCK =      1;   KBLOCK =      1    inner block; outer block 
   IBRION =     -1    ionic relax: 0-MD 1-quasi-New 2-CG
   NFREE  =      0    steps in history (QN), initial steepest desc. (CG)
   ISIF   =      2    stress and relaxation
   IWAVPR =     10    prediction:  0-non 1-charg 2-wave 3-comb
   ISYM   =      2    0-nonsym 1-usesym 2-fastsym
   LCORR  =      T    Harris-Foulkes like correction to forces

   POTIM  = 0.5000    time-step for ionic-motion
   TEIN   =    0.0    initial temperature
   TEBEG  =    0.0;   TEEND  =   0.0 temperature during run
   SMASS  =  -3.00    Nose mass-parameter (am)
   estimated Nose-frequenzy (Omega)   =  0.10E-29 period in steps = 0.13E+47 mass=  -0.396E-26a.u.
   SCALEE = 1.0000    scale energy and forces
   NPACO  =    256;   APACO  = 10.0  distance and # of slots for P.C.
   PSTRESS=    0.0 pullay stress

  Mass of Ions in am
   POMASS =  92.91 95.94180.95183.85
  Ionic Valenz
   ZVAL   =  13.00 14.00 11.00 14.00
  Atomic Wigner-Seitz radii
   RWIGS  =  -1.00 -1.00 -1.00 -1.00
  virtual crystal weights 
   VCA    =   1.00  1.00  1.00  1.00
   NELECT =    1685.0000    total number of electrons
   NUPDOWN=      -1.0000    fix difference up-down

 DOS related values:
   EMIN   =  10.00;   EMAX   =-10.00  energy-range for DOS
   EFERMI =   0.00
   ISMEAR =     0;   SIGMA  =   0.02  broadening in eV -4-tet -1-fermi 0-gaus

 Electronic relaxation 2 (details)
   IALGO  =     38    algorithm
   LDIAG  =      T    sub-space diagonalisation (order eigenvalues)
   LSUBROT=      F    optimize rotation matrix (better conditioning)
   TURBO    =      0    0=normal 1=particle mesh
   IRESTART =      0    0=no restart 2=restart with 2 vectors
   NREBOOT  =      0    no. of reboots
   NMIN     =      0    reboot dimension
   EREF     =   0.00    reference energy to select bands
   IMIX   =      4    mixing-type and parameters
     AMIX     =   0.40;   BMIX     =  1.00
     AMIX_MAG =   1.60;   BMIX_MAG =  1.00
     AMIN     =   0.10
     WC   =   100.;   INIMIX=   1;  MIXPRE=   1;  MAXMIX= -45

 Intra band minimization:
   WEIMIN = 0.0000     energy-eigenvalue tresh-hold
   EBREAK =  0.25E-11  absolut break condition
   DEPER  =   0.30     relativ break condition  

   TIME   =   0.40     timestep for ELM

  volume/ion in A,a.u.               =      17.81       120.16
  Fermi-wavevector in a.u.,A,eV,Ry     =   1.480309  2.797378 29.814628  2.191313
  Thomas-Fermi vector in A             =   2.594359
 
 Write flags
   LWAVE        =      F    write WAVECAR
   LDOWNSAMPLE  =      F    k-point downsampling of WAVECAR
   LCHARG       =      F    write CHGCAR
   LVTOT        =      F    write LOCPOT, total local potential
   LVHAR        =      F    write LOCPOT, Hartree potential only
   LELF         =      F    write electronic localiz. function (ELF)
   LORBIT       =      0    0 simple, 1 ext, 2 COOP (PROOUT), +10 PAW based schemes


 Dipole corrections
   LMONO  =      F    monopole corrections only (constant potential shift)
   LDIPOL =      F    correct potential (dipole corrections)
   IDIPOL =      0    1-x, 2-y, 3-z, 4-all directions 
   EPSILON=  1.0000000 bulk dielectric constant

 Core level calculations are selected ICORELEVEL =  1
 Exchange correlation treatment:
   GGA     =    PE    GGA type
   LEXCH   =     8    internal setting for exchange type
   LIBXC   =     F    Libxc                    
   VOSKOWN =     0    Vosko Wilk Nusair interpolation
   LHFCALC =     F    Hartree Fock is set to
   LHFONE  =     F    Hartree Fock one center treatment
   AEXX    =    0.0000 exact exchange contribution

 Linear response parameters
   LEPSILON=     F    determine dielectric tensor
   LRPA    =     F    only Hartree local field effects (RPA)
   LNABLA  =     F    use nabla operator in PAW spheres
   LVEL    =     F    velocity operator in full k-point grid
   CSHIFT  =0.1000    complex shift for real part using Kramers Kronig
   OMEGAMAX=  -1.0    maximum frequency
   DEG_THRESHOLD= 0.2000000E-02 threshold for treating states as degnerate
   RTIME   =   -0.100 relaxation time in fs
  (WPLASMAI=    0.000 imaginary part of plasma frequency in eV, 0.658/RTIME)
   DFIELD  = 0.0000000 0.0000000 0.0000000 field for delta impulse in time
 
  Optional k-point grid parameters
   LKPOINTS_OPT  =     F    use optional k-point grid
   KPOINTS_OPT_MODE=     1    mode for optional k-point grid
 
 Orbital magnetization related:
   ORBITALMAG=     F  switch on orbital magnetization
   LCHIMAG   =     F  perturbation theory with respect to B field
   DQ        =  0.001000  dq finite difference perturbation B field
   LLRAUG    =     F  two centre corrections for induced B field



--------------------------------------------------------------------------------------------------------


 Static calculation
 charge density and potential will be updated during run
 non-spin polarized calculation
 Variant of blocked Davidson
 Davidson routine will perform the subspace rotation
 perform sub-space diagonalisation
    after iterative eigenvector-optimisation
 modified Broyden-mixing scheme, WC =      100.0
 initial mixing is a Kerker type mixing with AMIX =  0.4000 and BMIX =      1.0000
 Hartree-type preconditioning will be used
 using additional bands          169
 reciprocal scheme for non local part
 use partial core corrections
 calculate Harris-corrections to forces 
   (improved forces if not selfconsistent)
 use gradient corrections 
 use of overlap-Matrix (Vanderbilt PP)
 Gauss-broadening in eV      SIGMA  =   0.02


--------------------------------------------------------------------------------------------------------


  energy-cutoff  :      250.00
  volume of cell :     2279.12
      direct lattice vectors                 reciprocal lattice vectors
    13.160000000  0.000000000  0.000000000     0.075987842  0.000000000  0.000000000
     0.000000000 13.160000000  0.000000000     0.000000000  0.075987842  0.000000000
     0.000000000  0.000000000 13.160000000     0.000000000  0.000000000  0.075987842

  length of vectors
    13.160000000 13.160000000 13.160000000     0.075987842  0.075987842  0.075987842


 
 k-points in units of 2pi/SCALE and weight: K-Spacing Value to Generate K-Mesh: 0.03
   0.00000000  0.00000000  0.00000000       0.037
   0.02532928  0.00000000  0.00000000       0.074
   0.00000000  0.02532928  0.00000000       0.074
   0.00000000  0.00000000  0.02532928       0.074
   0.02532928  0.02532928  0.00000000       0.074
   0.00000000  0.02532928  0.02532928       0.074
   0.02532928  0.00000000  0.02532928       0.074
  -0.02532928  0.02532928  0.00000000       0.074
  -0.02532928  0.00000000  0.02532928       0.074
   0.00000000 -0.02532928  0.02532928       0.074
   0.02532928  0.02532928  0.02532928       0.074
  -0.02532928  0.02532928  0.02532928       0.074
  -0.02532928 -0.02532928  0.02532928       0.074
   0.02532928 -0.02532928  0.02532928       0.074
 
 k-points in reciprocal lattice and weights: K-Spacing Value to Generate K-Mesh: 0.03
   0.00000000  0.00000000  0.00000000       0.037
   0.33333333  0.00000000  0.00000000       0.074
   0.00000000  0.33333333  0.00000000       0.074
   0.00000000  0.00000000  0.33333333       0.074
   0.33333333  0.33333333  0.00000000       0.074
   0.00000000  0.33333333  0.33333333       0.074
   0.33333333  0.00000000  0.33333333       0.074
  -0.33333333  0.33333333  0.00000000       0.074
  -0.33333333  0.00000000  0.33333333       0.074
   0.00000000 -0.33333333  0.33333333       0.074
   0.33333333  0.33333333  0.33333333       0.074
  -0.33333333  0.33333333  0.33333333       0.074
  -0.33333333 -0.33333333  0.33333333       0.074
   0.33333333 -0.33333333  0.33333333       0.074
 
 position of ions in fractional coordinates (direct lattice) 
   0.87500000  0.62500000  0.62500000
   0.87500000  0.12500000  0.37500000
   0.87500000  0.87500000  0.62500000
   0.00000000  0.75000000  0.25000000
   0.25000000  0.75000000  0.50000000
   0.12500000  0.62500000  0.62500000
   0.50000000  0.75000000  0.25000000
   0.62500000  0.62500000  0.62500000
   0.62500000  0.62500000  0.87500000
   0.62500000  0.12500000  0.87500000
   0.00000000  0.25000000  0.25000000
   0.37500000  0.37500000  0.37500000
   0.50000000  0.50000000  0.75000000
   0.00000000  0.00000000  0.25000000
   0.25000000  0.00000000  0.00000000
   0.25000000  0.50000000  0.50000000
   0.12500000  0.12500000  0.62500000
   0.50000000  0.25000000  0.00000000
   0.00000000  0.50000000  0.00000000
   0.25000000  0.50000000  0.25000000
   0.50000000  0.00000000  0.75000000
   0.37500000  0.37500000  0.62500000
   0.62500000  0.62500000  0.12500000
   0.12500000  0.37500000  0.12500000
   0.50000000  0.50000000  0.25000000
   0.25000000  0.50000000  0.75000000
   0.75000000  0.50000000  0.75000000
   0.87500000  0.37500000  0.62500000
   0.37500000  0.62500000  0.37500000
   0.87500000  0.12500000  0.87500000
   0.25000000  0.00000000  0.25000000
   0.62500000  0.87500000  0.37500000
   0.00000000  0.25000000  0.50000000
   0.75000000  0.00000000  0.00000000
   0.50000000  0.25000000  0.50000000
   0.75000000  0.75000000  0.25000000
   0.37500000  0.12500000  0.37500000
   0.62500000  0.12500000  0.62500000
   0.87500000  0.87500000  0.12500000
   0.25000000  0.00000000  0.50000000
   0.12500000  0.12500000  0.12500000
   0.62500000  0.37500000  0.87500000
   0.50000000  0.00000000  0.00000000
   0.75000000  0.00000000  0.75000000
   0.75000000  0.75000000  0.50000000
   0.25000000  0.50000000  0.00000000
   0.75000000  0.25000000  0.00000000
   0.75000000  0.00000000  0.25000000
   0.75000000  0.25000000  0.25000000
   0.12500000  0.37500000  0.87500000
   0.62500000  0.37500000  0.62500000
   0.37500000  0.62500000  0.62500000
   0.37500000  0.12500000  0.12500000
   0.00000000  0.75000000  0.50000000
   0.75000000  0.50000000  0.25000000
   0.62500000  0.87500000  0.87500000
   0.00000000  0.75000000  0.00000000
   0.12500000  0.12500000  0.37500000
   0.25000000  0.25000000  0.75000000
   0.50000000  0.25000000  0.75000000
   0.50000000  0.75000000  0.50000000
   0.62500000  0.87500000  0.62500000
   0.37500000  0.62500000  0.12500000
   0.75000000  0.75000000  0.00000000
   0.00000000  0.25000000  0.00000000
   0.75000000  0.00000000  0.50000000
   0.50000000  0.50000000  0.00000000
   0.25000000  0.25000000  0.25000000
   0.87500000  0.12500000  0.12500000
   0.75000000  0.75000000  0.75000000
   0.50000000  0.75000000  0.00000000
   0.37500000  0.87500000  0.12500000
   0.50000000  0.50000000  0.50000000
   0.37500000  0.37500000  0.87500000
   0.12500000  0.62500000  0.12500000
   0.25000000  0.75000000  0.25000000
   0.25000000  0.00000000  0.75000000
   0.12500000  0.62500000  0.37500000
   0.25000000  0.75000000  0.75000000
   0.12500000  0.87500000  0.87500000
   0.37500000  0.87500000  0.62500000
   0.50000000  0.25000000  0.25000000
   0.12500000  0.37500000  0.37500000
   0.12500000  0.87500000  0.62500000
   0.00000000  0.00000000  0.75000000
   0.50000000  0.00000000  0.50000000
   0.00000000  0.00000000  0.50000000
   0.75000000  0.50000000  0.00000000
   0.87500000  0.37500000  0.12500000
   0.25000000  0.75000000  0.00000000
   0.62500000  0.37500000  0.37500000
   0.12500000  0.87500000  0.12500000
   0.62500000  0.12500000  0.37500000
   0.37500000  0.12500000  0.87500000
   0.62500000  0.37500000  0.12500000
   0.50000000  0.00000000  0.25000000
   0.87500000  0.12500000  0.62500000
   0.00000000  0.50000000  0.25000000
   0.25000000  0.25000000  0.50000000
   0.37500000  0.87500000  0.87500000
   0.87500000  0.62500000  0.12500000
   0.50000000  0.75000000  0.75000000
   0.12500000  0.12500000  0.87500000
   0.00000000  0.75000000  0.75000000
   0.62500000  0.12500000  0.12500000
   0.75000000  0.25000000  0.50000000
   0.87500000  0.62500000  0.37500000
   0.37500000  0.37500000  0.12500000
   0.37500000  0.12500000  0.62500000
   0.75000000  0.50000000  0.50000000
   0.25000000  0.25000000  0.00000000
   0.87500000  0.37500000  0.37500000
   0.12500000  0.87500000  0.37500000
   0.87500000  0.37500000  0.87500000
   0.62500000  0.62500000  0.37500000
   0.00000000  0.50000000  0.50000000
   0.00000000  0.50000000  0.75000000
   0.87500000  0.62500000  0.87500000
   0.87500000  0.87500000  0.87500000
   0.00000000  0.00000000  0.00000000
   0.00000000  0.25000000  0.75000000
   0.37500000  0.87500000  0.37500000
   0.75000000  0.25000000  0.75000000
   0.62500000  0.87500000  0.12500000
   0.87500000  0.87500000  0.37500000
   0.37500000  0.62500000  0.87500000
   0.12500000  0.62500000  0.87500000
   0.12500000  0.37500000  0.62500000
 
 position of ions in cartesian coordinates  (Angst):
  11.51500000  8.22500000  8.22500000
  11.51500000  1.64500000  4.93500000
  11.51500000 11.51500000  8.22500000
   0.00000000  9.87000000  3.29000000
   3.29000000  9.87000000  6.58000000
   1.64500000  8.22500000  8.22500000
   6.58000000  9.87000000  3.29000000
   8.22500000  8.22500000  8.22500000
   8.22500000  8.22500000 11.51500000
   8.22500000  1.64500000 11.51500000
   0.00000000  3.29000000  3.29000000
   4.93500000  4.93500000  4.93500000
   6.58000000  6.58000000  9.87000000
   0.00000000  0.00000000  3.29000000
   3.29000000  0.00000000  0.00000000
   3.29000000  6.58000000  6.58000000
   1.64500000  1.64500000  8.22500000
   6.58000000  3.29000000  0.00000000
   0.00000000  6.58000000  0.00000000
   3.29000000  6.58000000  3.29000000
   6.58000000  0.00000000  9.87000000
   4.93500000  4.93500000  8.22500000
   8.22500000  8.22500000  1.64500000
   1.64500000  4.93500000  1.64500000
   6.58000000  6.58000000  3.29000000
   3.29000000  6.58000000  9.87000000
   9.87000000  6.58000000  9.87000000
  11.51500000  4.93500000  8.22500000
   4.93500000  8.22500000  4.93500000
  11.51500000  1.64500000 11.51500000
   3.29000000  0.00000000  3.29000000
   8.22500000 11.51500000  4.93500000
   0.00000000  3.29000000  6.58000000
   9.87000000  0.00000000  0.00000000
   6.58000000  3.29000000  6.58000000
   9.87000000  9.87000000  3.29000000
   4.93500000  1.64500000  4.93500000
   8.22500000  1.64500000  8.22500000
  11.51500000 11.51500000  1.64500000
   3.29000000  0.00000000  6.58000000
   1.64500000  1.64500000  1.64500000
   8.22500000  4.93500000 11.51500000
   6.58000000  0.00000000  0.00000000
   9.87000000  0.00000000  9.87000000
   9.87000000  9.87000000  6.58000000
   3.29000000  6.58000000  0.00000000
   9.87000000  3.29000000  0.00000000
   9.87000000  0.00000000  3.29000000
   9.87000000  3.29000000  3.29000000
   1.64500000  4.93500000 11.51500000
   8.22500000  4.93500000  8.22500000
   4.93500000  8.22500000  8.22500000
   4.93500000  1.64500000  1.64500000
   0.00000000  9.87000000  6.58000000
   9.87000000  6.58000000  3.29000000
   8.22500000 11.51500000 11.51500000
   0.00000000  9.87000000  0.00000000
   1.64500000  1.64500000  4.93500000
   3.29000000  3.29000000  9.87000000
   6.58000000  3.29000000  9.87000000
   6.58000000  9.87000000  6.58000000
   8.22500000 11.51500000  8.22500000
   4.93500000  8.22500000  1.64500000
   9.87000000  9.87000000  0.00000000
   0.00000000  3.29000000  0.00000000
   9.87000000  0.00000000  6.58000000
   6.58000000  6.58000000  0.00000000
   3.29000000  3.29000000  3.29000000
  11.51500000  1.64500000  1.64500000
   9.87000000  9.87000000  9.87000000
   6.58000000  9.87000000  0.00000000
   4.93500000 11.51500000  1.64500000
   6.58000000  6.58000000  6.58000000
   4.93500000  4.93500000 11.51500000
   1.64500000  8.22500000  1.64500000
   3.29000000  9.87000000  3.29000000
   3.29000000  0.00000000  9.87000000
   1.64500000  8.22500000  4.93500000
   3.29000000  9.87000000  9.87000000
   1.64500000 11.51500000 11.51500000
   4.93500000 11.51500000  8.22500000
   6.58000000  3.29000000  3.29000000
   1.64500000  4.93500000  4.93500000
   1.64500000 11.51500000  8.22500000
   0.00000000  0.00000000  9.87000000
   6.58000000  0.00000000  6.58000000
   0.00000000  0.00000000  6.58000000
   9.87000000  6.58000000  0.00000000
  11.51500000  4.93500000  1.64500000
   3.29000000  9.87000000  0.00000000
   8.22500000  4.93500000  4.93500000
   1.64500000 11.51500000  1.64500000
   8.22500000  1.64500000  4.93500000
   4.93500000  1.64500000 11.51500000
   8.22500000  4.93500000  1.64500000
   6.58000000  0.00000000  3.29000000
  11.51500000  1.64500000  8.22500000
[...]
   0.575E+02 0.149E+03 0.331E+02   -.571E+02 -.149E+03 -.324E+02   0.774E-01 0.256E+00 -.276E+00   -.112E-04 -.196E-04 0.486E-05
   -.953E+02 -.307E+02 0.511E+02   0.948E+02 0.302E+02 -.508E+02   -.402E+00 0.292E+00 -.463E-01   -.513E-04 0.546E-04 0.160E-04
   0.311E+02 -.109E+03 0.964E+01   -.307E+02 0.109E+03 -.910E+01   0.799E-01 -.161E+00 -.446E-01   0.814E-06 0.170E-04 -.328E-04
   -.100E+03 0.188E+02 0.490E+02   0.996E+02 -.190E+02 -.488E+02   -.136E+00 0.665E-01 0.559E-01   -.467E-05 0.309E-04 0.135E-04
   0.967E+02 0.522E+00 -.276E+02   -.967E+02 -.638E+00 0.274E+02   0.243E+00 0.658E-02 -.155E+00   -.181E-04 -.147E-04 -.448E-04
   -.196E+02 -.281E+02 -.833E+02   0.194E+02 0.281E+02 0.826E+02   -.119E+00 -.362E+00 -.129E+00   0.394E-05 0.925E-05 -.262E-04
   -.369E+02 -.567E+02 0.172E+02   0.371E+02 0.569E+02 -.174E+02   -.294E+00 -.265E+00 0.290E+00   -.504E-04 -.286E-04 -.109E-04
   -.590E+02 -.213E+02 -.677E+02   0.587E+02 0.211E+02 0.679E+02   0.946E-01 -.742E-01 -.551E+00   -.106E-05 -.603E-06 -.312E-04
   -.118E+03 0.922E+02 0.447E+02   0.118E+03 -.920E+02 -.448E+02   -.346E+00 0.169E+00 0.290E+00   0.237E-04 0.810E-05 0.179E-04
   0.398E+02 0.167E+02 0.443E+01   -.401E+02 -.162E+02 -.391E+01   0.128E+00 -.351E+00 -.263E+00   -.225E-04 -.137E-04 -.263E-04
   -.670E+02 0.410E+02 -.629E+02   0.669E+02 -.408E+02 0.625E+02   0.115E-01 -.213E+00 -.649E-01   0.256E-04 -.215E-04 -.266E-04
   0.769E+00 -.155E+02 -.224E+02   -.189E+00 0.153E+02 0.220E+02   -.445E+00 0.250E-01 0.259E+00   0.674E-06 -.577E-04 -.314E-04
   -.102E+02 -.456E+02 -.231E+01   0.102E+02 0.455E+02 0.249E+01   -.338E+00 -.135E+00 0.127E-01   0.387E-04 -.200E-04 -.771E-04
   0.231E+02 -.683E+02 -.501E+02   -.224E+02 0.682E+02 0.495E+02   -.700E-01 -.434E+00 0.509E-01   -.118E-05 0.381E-04 0.173E-04
   0.101E+03 0.184E+02 0.507E+01   -.100E+03 -.187E+02 -.504E+01   0.409E+00 0.365E+00 -.152E+00   -.130E-04 0.206E-04 0.563E-05
   -.120E+03 0.973E+02 0.131E+02   0.120E+03 -.975E+02 -.139E+02   -.453E+00 0.287E+00 0.383E+00   -.355E-04 0.413E-04 0.171E-04
   0.756E+02 -.303E+02 -.134E+02   -.746E+02 0.302E+02 0.133E+02   -.160E+00 -.817E-01 -.133E+00   -.419E-04 0.210E-04 0.171E-04
   0.520E+02 0.825E+02 0.355E+02   -.518E+02 -.819E+02 -.354E+02   -.299E+00 -.881E-01 -.843E-01   0.165E-04 0.345E-04 0.607E-04
   0.218E+02 -.316E+02 -.587E+02   -.212E+02 0.319E+02 0.591E+02   -.168E+00 -.430E+00 -.270E+00   -.288E-04 0.757E-05 -.442E-04
   0.602E+02 0.191E+02 -.521E+02   -.605E+02 -.191E+02 0.522E+02   0.152E+00 0.154E+00 -.259E+00   -.475E-04 0.128E-04 0.766E-05
   -.110E+03 0.963E+02 0.318E+02   0.110E+03 -.960E+02 -.316E+02   -.585E+00 -.119E-01 0.945E-01   0.576E-04 0.595E-04 -.223E-04
   -.136E+03 -.270E+02 0.188E+02   0.135E+03 0.272E+02 -.191E+02   -.440E+00 0.286E-01 0.516E+00   -.360E-04 -.374E-05 -.244E-04
   -.592E+01 -.366E+02 0.352E+02   0.593E+01 0.365E+02 -.351E+02   0.146E-01 -.390E+00 -.626E-01   -.197E-04 -.476E-04 -.307E-04
   0.159E+03 0.787E+02 0.536E+01   -.159E+03 -.788E+02 -.534E+01   0.527E+00 0.284E-01 -.632E-01   -.207E-04 0.246E-04 0.182E-04
   -.650E+02 0.523E+02 0.281E+02   0.650E+02 -.525E+02 -.280E+02   -.667E-01 0.374E+00 0.185E+00   0.422E-04 -.734E-05 -.339E-06
   0.895E+02 -.150E+02 0.340E+01   -.897E+02 0.152E+02 -.282E+01   0.584E-01 0.734E-01 -.208E+00   -.145E-04 -.530E-04 -.446E-04
   -.370E+02 0.181E+03 0.773E+02   0.366E+02 -.181E+03 -.774E+02   0.256E+00 0.550E+00 0.388E+00   -.501E-04 0.113E-04 0.956E-04
   -.132E+03 -.121E+03 0.306E+02   0.131E+03 0.121E+03 -.302E+02   -.158E+00 -.413E+00 0.229E+00   -.221E-04 -.749E-05 -.462E-04
   0.631E+02 -.336E+02 -.679E+02   -.630E+02 0.335E+02 0.681E+02   0.104E+00 -.102E+00 0.561E-01   -.523E-04 0.452E-04 -.539E-04
   0.656E+02 0.648E+01 0.889E+02   -.655E+02 -.652E+01 -.887E+02   -.705E-01 0.808E-01 0.295E+00   -.333E-05 0.668E-04 0.177E-04
   -.897E+02 -.574E+01 0.915E+01   0.899E+02 0.561E+01 -.866E+01   -.378E+00 0.185E-02 -.376E+00   0.171E-04 0.504E-04 0.340E-04
   -.174E+02 -.371E+02 -.648E+02   0.169E+02 0.370E+02 0.645E+02   0.254E+00 0.178E-01 -.251E+00   0.657E-04 -.559E-04 -.338E-04
   0.216E+02 0.122E+03 0.205E+02   -.221E+02 -.122E+03 -.206E+02   0.258E+00 0.106E+00 0.549E-01   0.305E-04 -.428E-04 -.112E-04
   0.764E+02 0.130E+02 0.235E+01   -.767E+02 -.130E+02 -.243E+01   0.270E+00 -.800E-01 -.460E+00   -.748E-05 0.163E-04 0.540E-04
   -.358E+02 -.154E+02 0.269E+01   0.362E+02 0.148E+02 -.281E+01   -.327E+00 0.271E+00 0.796E-01   -.231E-04 -.446E-04 0.328E-04
   -.316E+02 0.202E+02 0.359E+02   0.313E+02 -.203E+02 -.357E+02   -.128E+00 0.621E+00 -.121E+00   0.113E-04 -.139E-05 0.371E-04
   -.615E+02 0.698E+02 0.679E+01   0.616E+02 -.702E+02 -.657E+01   -.106E+00 0.293E+00 0.167E+00   -.513E-04 0.314E-05 0.272E-05
   0.240E+02 -.687E+02 -.634E+02   -.238E+02 0.681E+02 0.632E+02   0.532E-01 0.147E+00 0.972E-02   -.150E-04 -.727E-05 0.383E-04
   0.122E+03 0.587E+02 -.108E+02   -.122E+03 -.586E+02 0.109E+02   0.612E+00 0.105E+00 0.862E-01   -.282E-04 0.592E-05 0.299E-04
   -.116E+03 -.375E+02 0.583E+02   0.116E+03 0.371E+02 -.584E+02   -.463E+00 0.249E+00 0.352E-01   -.776E-04 0.206E-04 0.151E-04
   -.284E+02 -.738E+02 0.203E+02   0.284E+02 0.737E+02 -.195E+02   0.144E+00 -.166E+00 -.229E+00   -.872E-04 -.227E-05 0.237E-05
   0.305E+02 -.172E+02 0.110E+01   -.304E+02 0.175E+02 -.147E+01   0.486E+00 0.125E+00 0.472E+00   -.192E-04 -.755E-04 -.231E-04
   -.906E+02 0.927E+01 0.823E+02   0.912E+02 -.912E+01 -.826E+02   -.312E+00 -.408E+00 0.445E+00   0.654E-04 0.161E-05 0.302E-04
   -.130E+03 0.112E+03 0.478E+02   0.130E+03 -.112E+03 -.478E+02   -.204E+00 0.763E-01 0.117E+00   0.264E-04 0.760E-04 0.379E-04
   -.310E+02 0.774E+02 0.399E+02   0.311E+02 -.777E+02 -.400E+02   -.748E-01 0.456E+00 0.465E+00   -.637E-04 -.578E-05 0.639E-04
   0.598E+02 0.542E+02 0.675E+01   -.593E+02 -.543E+02 -.671E+01   -.266E+00 0.353E+00 0.172E+00   0.237E-04 -.133E-04 0.376E-04
   0.230E+01 0.880E+00 0.705E+01   -.241E+01 -.475E+00 -.717E+01   -.418E-02 -.259E+00 -.111E+00   -.138E-05 0.960E-04 0.518E-04
   0.124E+03 0.602E+02 0.154E+02   -.124E+03 -.604E+02 -.150E+02   0.443E+00 0.499E+00 -.206E+00   -.345E-04 -.171E-04 0.995E-05
   -.100E+03 -.331E+02 -.431E+02   0.995E+02 0.333E+02 0.436E+02   0.106E+00 -.545E+00 -.317E+00   0.778E-04 -.659E-04 0.494E-05
   0.587E+02 -.109E+03 -.185E+02   -.583E+02 0.108E+03 0.186E+02   -.333E+00 0.117E+00 0.456E-01   0.461E-04 -.307E-04 -.104E-04
   -.109E+03 -.151E+03 -.340E+02   0.109E+03 0.151E+03 0.340E+02   -.121E+00 -.398E+00 0.549E-01   -.533E-04 -.139E-04 0.173E-05
   -.549E+02 -.339E+02 0.733E+02   0.547E+02 0.337E+02 -.736E+02   -.317E-01 -.663E-01 0.337E+00   -.671E-04 0.713E-05 -.327E-05
 -----------------------------------------------------------------------------------------------
   0.320E+00 -.747E-01 -.634E+00   0.126E-11 -.398E-12 0.426E-12   -.320E+00 0.750E-01 0.634E+00   0.475E-04 -.336E-04 0.309E-04
 
 
 POSITION                                       TOTAL-FORCE (eV/Angst)
 -----------------------------------------------------------------------------------
     11.51500      8.22500      8.22500         0.319237      0.051110     -0.525158
     11.51500      1.64500      4.93500        -0.824970      0.030519     -0.078104
     11.51500     11.51500      8.22500        -0.326555     -0.110227     -0.260852
      0.00000      9.87000      3.29000        -0.726422      0.200665      0.079712
      3.29000      9.87000      6.58000         0.337671      0.135080     -0.163897
      1.64500      8.22500      8.22500        -0.611140     -0.094686     -0.071192
      6.58000      9.87000      3.29000         0.043722      0.026563     -0.113118
      8.22500      8.22500      8.22500         0.015653      0.357225     -0.527551
      8.22500      8.22500     11.51500        -0.210749      0.098999      0.070691
      8.22500      1.64500     11.51500         0.075159      0.178171     -0.128297
      0.00000      3.29000      3.29000         0.011545     -0.521241     -0.263853
      4.93500      4.93500      4.93500        -0.492981     -0.405374     -0.143896
      6.58000      6.58000      9.87000        -0.025222      0.111763     -0.095758
      0.00000      0.00000      3.29000        -0.111086      0.073969      0.022441
      3.29000      0.00000      0.00000         0.145671      0.778551     -0.080065
      3.29000      6.58000      6.58000         0.186120     -0.099796      0.410464
      1.64500      1.64500      8.22500         0.375771      0.593198      0.053944
      6.58000      3.29000      0.00000        -0.119819     -0.089033      0.372319
      0.00000      6.58000      0.00000        -0.196924      0.105777     -0.686531
      3.29000      6.58000      3.29000         0.459806      0.041947     -0.488814
      6.58000      0.00000      9.87000         0.133918     -0.040795     -0.044799
      4.93500      4.93500      8.22500        -0.238490     -0.699539      0.442624
      8.22500      8.22500      1.64500         0.423819      0.005014      0.287945
      1.64500      4.93500      1.64500         0.120416     -0.184177     -0.123463
      6.58000      6.58000      3.29000         0.005789      0.014415     -0.311081
      3.29000      6.58000      9.87000        -0.288999      0.203368      0.289734
      9.87000      6.58000      9.87000         0.037192     -0.453194      0.309469
     11.51500      4.93500      8.22500        -0.005104     -0.168793     -0.027400
      4.93500      8.22500      4.93500         0.211744      0.301629      0.206625
     11.51500      1.64500     11.51500         0.046144      0.366038      0.105119
      3.29000      0.00000      3.29000         0.150554      0.612293      0.444667
      8.22500     11.51500      4.93500         0.526884     -0.135491     -0.072562
      0.00000      3.29000      6.58000         0.058170     -0.106764      0.148064
      9.87000      0.00000      0.00000         0.105523     -0.325353      0.454204
      6.58000      3.29000      6.58000        -0.151656     -0.322565      0.446335
      9.87000      9.87000      3.29000         0.385997      0.023616      0.008798
      4.93500      1.64500      4.93500        -0.273829     -0.142047      0.038662
      8.22500      1.64500      8.22500         0.404275      0.193905      0.082169
     11.51500     11.51500      1.64500        -0.315011     -0.110481     -0.165767
      3.29000      0.00000      6.58000         0.135469      0.264733     -0.491098
      1.64500      1.64500      1.64500         0.037040      0.339879     -0.408238
      8.22500      4.93500     11.51500         0.036259     -0.395232      0.001760
      6.58000      0.00000      0.00000         0.040208     -0.068000      0.034995
      9.87000      0.00000      9.87000        -0.186232     -0.053589     -0.063988
      9.87000      9.87000      6.58000        -0.006284     -0.005607     -0.345676
      3.29000      6.58000      0.00000         0.180518      0.037678     -0.197914
      9.87000      3.29000      0.00000        -0.147239      0.141160      0.040458
      9.87000      0.00000      3.29000         0.081916     -0.198666     -0.481956
      9.87000      3.29000      3.29000        -0.062022     -0.018063     -0.243470
      1.64500      4.93500     11.51500        -0.043174     -0.267010     -0.070447
      8.22500      4.93500      8.22500         0.457369     -0.388961     -0.070285
      4.93500      8.22500      8.22500         0.308947      0.376970      0.113754
      4.93500      1.64500      1.64500         0.060707      0.114751     -0.039408
      0.00000      9.87000      6.58000        -0.229010      0.145107     -0.499126
      9.87000      6.58000      3.29000         0.134970      0.179069      0.056795
      8.22500     11.51500     11.51500         0.090656      0.036848      0.044623
      0.00000      9.87000      0.00000        -0.429016     -0.101946     -0.215424
      1.64500      1.64500      4.93500         0.484896      0.214752      0.120461
      3.29000      3.29000      9.87000        -0.196087     -0.220582      0.118224
      6.58000      3.29000      9.87000         0.195212     -0.272806     -0.004795
      6.58000      9.87000      6.58000         0.006729      0.005343      0.045224
      8.22500     11.51500      8.22500         0.108967     -0.059540     -0.145271
      4.93500      8.22500      1.64500        -0.050035     -0.314832     -0.376344
      9.87000      9.87000      0.00000         0.253433      0.268352      0.021156
      0.00000      3.29000      0.00000         0.258949     -0.198988     -0.289468
      9.87000      0.00000      6.58000         0.029272      0.000887      0.120988
      6.58000      6.58000      0.00000        -0.103656     -0.057606      0.099059
      3.29000      3.29000      3.29000         0.217781     -0.527276     -0.168426
     11.51500      1.64500      1.64500        -0.238633      0.132800     -0.148868
      9.87000      9.87000      9.87000        -0.123679      0.546108      0.408868
      6.58000      9.87000      0.00000        -0.205269      0.148649     -0.356071
      4.93500     11.51500      1.64500         0.588464      0.613319     -0.003066
      6.58000      6.58000      6.58000         0.306224      0.312698      0.319203
      4.93500      4.93500     11.51500        -0.217434     -0.205376      0.301758
      1.64500      8.22500      1.64500        -0.394276     -0.268480     -0.323685
      3.29000      9.87000      3.29000         0.285883      0.269703      0.196237
      3.29000      0.00000      9.87000         0.480962      0.485165      0.434962
      1.64500      8.22500      4.93500        -0.861655     -0.220289      0.245949
      3.29000      9.87000      9.87000         0.460269     -0.479044      0.492416
      1.64500     11.51500     11.51500        -0.789475     -0.183627      0.273243
      4.93500     11.51500      8.22500         0.259006     -0.109527     -0.338424
      6.58000      3.29000      3.29000        -0.335484     -0.392825     -0.856238
      1.64500      4.93500      4.93500        -0.126301     -0.015921      0.109615
      1.64500     11.51500      8.22500        -0.167996     -0.302030     -0.322864
      0.00000      0.00000      9.87000        -0.194181      0.323567      0.196839
      6.58000      0.00000      6.58000        -0.148181      0.155358      0.253864
      0.00000      0.00000      6.58000        -0.033334      0.032296     -0.466157
      9.87000      6.58000      0.00000         0.135527     -0.159710     -0.086063
     11.51500      4.93500      1.64500        -0.335511     -0.292390      0.200657
      3.29000      9.87000      0.00000         0.638178     -0.511830     -0.512144
      8.22500      4.93500      4.93500         1.154723      0.024721     -0.116898
      1.64500     11.51500      1.64500        -0.506031      0.019501     -0.441311
      8.22500      1.64500      4.93500         0.797945     -0.229244     -0.243373
      4.93500      1.64500     11.51500        -0.112787      0.503809      0.019201
      8.22500      4.93500      1.64500         0.397002     -0.171629      0.114581
      6.58000      0.00000      3.29000        -0.211223      0.234396     -0.143799
     11.51500      1.64500      8.22500        -0.645815      0.302742      0.224943
      0.00000      6.58000      3.29000        -0.690675      0.218717      0.206475
      3.29000      3.29000      6.58000         0.027280     -0.524669      0.098991
      4.93500     11.51500     11.51500         0.352458     -0.024798     -0.048377
     11.51500      8.22500      1.64500        -0.115229      0.121696      0.297825
      6.58000      9.87000      9.87000        -0.170591      0.249177      0.372415
      1.64500      1.64500     11.51500        -0.157204      0.607276      0.243320
      0.00000      9.87000      9.87000        -0.239880     -0.226464      0.704814
      8.22500      1.64500      1.64500         0.215885     -0.183479      0.212300
      9.87000      3.29000      6.58000         0.009632      0.039505      0.523670
     11.51500      8.22500      4.93500        -0.207425     -0.132657      0.116163
      4.93500      4.93500      1.64500        -0.276557     -0.115261     -0.567734
      4.93500      1.64500      8.22500        -0.271928      0.307593      0.017149
      9.87000      6.58000      6.58000        -0.005965     -0.070068     -0.536486
      3.29000      3.29000      0.00000         0.063937     -0.397119     -0.041511
     11.51500      4.93500      4.93500        -0.356175      0.547994      0.024461
      1.64500     11.51500      4.93500        -0.030929     -0.081655      0.388473
     11.51500      4.93500     11.51500         0.264527     -0.445440     -0.174225
      8.22500      8.22500      4.93500         0.825789      0.155616      0.254173
      0.00000      6.58000      6.58000        -0.348616     -0.162539     -0.074214
      0.00000      6.58000      9.87000         0.238677     -0.198315      0.534209
     11.51500      8.22500     11.51500         0.562472      0.350624      0.096343
     11.51500     11.51500     11.51500         0.230063     -0.259217      0.206546
      0.00000      0.00000      0.00000        -0.304474      0.157282      0.084058
      0.00000      3.29000      9.87000         0.052239      0.217588      0.329237
      4.93500     11.51500      4.93500         0.213119      0.240376      0.217351
      9.87000      3.29000      9.87000        -0.111043      0.146658     -0.233609
      8.22500     11.51500      1.64500         0.254022      0.348119      0.232623
     11.51500     11.51500      4.93500        -0.593049     -0.399124      0.180858
      4.93500      8.22500     11.51500         0.096358     -0.240239      0.205830
      1.64500      8.22500     11.51500        -0.416934     -0.041065      0.010871
      1.64500      4.93500      8.22500        -0.295067     -0.240101      0.076635
 -----------------------------------------------------------------------------------
    total drift:                                0.000206      0.000214      0.000213


--------------------------------------------------------------------------------------------------------



  FREE ENERGIE OF THE ION-ELECTRON SYSTEM (eV)
  ---------------------------------------------------
  free  energy   TOTEN  =     -1469.85357893 eV

  energy  without entropy=    -1469.83222454  energy(sigma->0) =    -1469.84290173
 


--------------------------------------------------------------------------------------------------------


    POTLOK:  cpu time      0.0390: real time      0.0425


--------------------------------------------------------------------------------------------------------


     LOOP+:  cpu time   3981.2949: real time   3998.5774
    4ORBIT:  cpu time      0.0000: real time      0.0000

 total amount of memory used by VASP MPI-rank0   163918. kBytes
=======================================================================

   base      :      30000. kBytes
   nonl-proj :      17271. kBytes
   fftplans  :       2883. kBytes
   grid      :       5463. kBytes
   one-center:        171. kBytes
   wavefun   :     108130. kBytes
 
  
  
 General timing and accounting informations for this job:
 ========================================================
  
                  Total CPU time used (sec):     4324.901
                            User time (sec):     4288.314
                          System time (sec):       36.587
                         Elapsed time (sec):     4345.113
  
                   Maximum memory used (kb):      246876.
                   Average memory used (kb):          N/A
  
                          Minor page faults:        19262
                          Major page faults:            0
                 Voluntary context switches:          260
