 vasp.6.3.1 04May22 (build Jul 26 2022 04:02:40) complex                        
  
 executed on             LinuxIFC date 2023.11.30  11:54:46
 running on   48 total cores
 distrk:  each k-point on   48 cores,    1 groups
 distr:  one band on NCORE=  12 cores,    4 groups


--------------------------------------------------------------------------------------------------------


 INCAR:
   ISTART = 0
   NWRITE = 2
   PREC = Accurate
   ENCUT = 250
   GGA = PE
   NSW = 0
   ISIF = 2
   ISYM = 2
   NBLOCK = 1
   KBLOCK = 1
   IBRION = -1
   NELM = 80
   EDIFF = 1E-08
   EDIFFG = -0.01
   ALGO = Normal
   LDIAG = .TRUE.
   LREAL = .FALSE.
   ISMEAR = 0
   SIGMA = 0.02
   ICHARG = 2
   LPLANE = .TRUE.
   NPAR = 4
   LSCALU = .FALSE.
   NSIM = 4
   LWAVE = .FALSE.
   LCHARG = .FALSE.
   ICORELEVEL = 1

 POTCAR:    PAW_PBE Nb_sv 25May2007               
 POTCAR:    PAW_PBE Mo_sv 02Feb2006               
 POTCAR:    PAW_PBE Ta_pv 07Sep2000               
 POTCAR:    PAW_PBE W_sv 04Sep2015                
 POTCAR:    PAW_PBE Nb_sv 25May2007               
   SHA256 =  0e8fc07c9fcd1164cf2ade22d0399fd28f85e91cd773dfa6cf24839a48c95e24 Nb_sv/POTCAR          
   COPYR  = (c) Copyright 25May2007 Georg Kresse                                                    
   COPYR  = This file is part of the software VASP. Any use, copying, and all other rights are regul
   COPYR  = If you do not have a valid VASP license, you may not use, copy or distribute this file. 
   VRHFIN =Nb: 4p5s4d                                                                               
   LEXCH  = PE                                                                                      
   EATOM  =  1555.1913 eV,  114.3033 Ry                                                             
                                                                                                    
   TITEL  = PAW_PBE Nb_sv 25May2007                                                                 
   LULTRA =        F    use ultrasoft PP ?                                                          
   IUNSCR =        1    unscreen: 0-lin 1-nonlin 2-no                                               
   RPACOR =    1.800    partial core radius                                                         
   POMASS =   92.910; ZVAL   =   13.000    mass and valenz                                          
   RCORE  =    2.400    outmost cutoff radius                                                       
   RWIGS  =    2.400; RWIGS  =    1.270    wigner-seitz radius (au A)                               
   ENMAX  =  293.235; ENMIN  =  219.927 eV                                                          
   ICORE  =        3    local potential                                                             
   LCOR   =        T    correct aug charges                                                         
   LPAW   =        T    paw PP                                                                      
   EAUG   =  455.659                                                                                
   DEXC   =    0.000                                                                                
   RMAX   =    2.456    core radius for proj-oper                                                   
   RAUG   =    1.300    factor for augmentation sphere                                              
   RDEP   =    2.451    radius for radial grids                                                     
   RDEPT  =    1.956    core radius for aug-charge                                                  
                                                                                                    
   Atomic configuration                                                                             
   11 entries                                                                                       
     n  l   j            E        occ.                                                              
     1  0  0.50    -18805.2457   2.0000                                                             
     2  0  0.50     -2630.2869   2.0000                                                             
     2  1  1.50     -2348.4046   6.0000                                                             
     3  0  0.50      -438.8757   2.0000                                                             
     3  1  1.50      -346.7588   6.0000                                                             
     3  2  2.50      -196.2560  10.0000                                                             
     4  0  0.50       -58.3859   2.0000                                                             
     5  0  0.50        -3.9816   1.0000                                                             
     4  1  1.50       -34.5141   6.0000                                                             
     4  2  2.50        -3.0408   4.0000                                                             
     4  3  2.50        -1.3606   0.0000                                                             
   Description                                                                                      
     l       E           TYP  RCUT    TYP  RCUT                                                     
     0    -58.3859094     23  2.200                                                                 
     0     -3.9816262     23  2.200                                                                 
     1    -34.5140738     23  2.200                                                                 
     1     13.6058260     23  2.200                                                                 
     2     -3.0408010     23  2.200                                                                 
     2     -0.1283038     23  2.200                                                                 
     3     -1.3605826     23  2.400                                                                 
  local pseudopotential read in
  partial core-charges read in
  partial kinetic energy density read in
  atomic valenz-charges read in
  non local Contribution for L=           0  read in
    real space projection operators read in
  non local Contribution for L=           0  read in
    real space projection operators read in
  non local Contribution for L=           1  read in
    real space projection operators read in
  non local Contribution for L=           1  read in
    real space projection operators read in
  non local Contribution for L=           2  read in
    real space projection operators read in
  non local Contribution for L=           2  read in
    real space projection operators read in
    PAW grid and wavefunctions read in
 
   number of l-projection  operators is LMAX  =           6
   number of lm-projection operators is LMMAX =          18
 
 POTCAR:    PAW_PBE Mo_sv 02Feb2006               
   SHA256 =  2731df97e41766cc617548c5a8267718fdef1f509ac6bafa01e745abea2bdfaa Mo_sv/POTCAR          
   COPYR  = (c) Copyright 02Feb2006 Georg Kresse                                                    
   COPYR  = This file is part of the software VASP. Any use, copying, and all other rights are regul
   COPYR  = If you do not have a valid VASP license, you may not use, copy or distribute this file. 
   VRHFIN =Mo: 4p5s4d                                                                               
   LEXCH  = PE                                                                                      
   EATOM  =  1862.2866 eV,  136.8742 Ry                                                             
                                                                                                    
   TITEL  = PAW_PBE Mo_sv 02Feb2006                                                                 
   LULTRA =        F    use ultrasoft PP ?                                                          
   IUNSCR =        1    unscreen: 0-lin 1-nonlin 2-no                                               
   RPACOR =    2.200    partial core radius                                                         
   POMASS =   95.940; ZVAL   =   14.000    mass and valenz                                          
   RCORE  =    2.500    outmost cutoff radius                                                       
   RWIGS  =    2.750; RWIGS  =    1.455    wigner-seitz radius (au A)                               
   ENMAX  =  242.676; ENMIN  =  182.007 eV                                                          
   ICORE  =        3    local potential                                                             
   LCOR   =        T    correct aug charges                                                         
   LPAW   =        T    paw PP                                                                      
   EAUG   =  446.014                                                                                
   DEXC   =    0.000                                                                                
   RMAX   =    2.563    core radius for proj-oper                                                   
   RAUG   =    1.300    factor for augmentation sphere                                              
   RDEP   =    2.641    radius for radial grids                                                     
   RDEPT  =    2.031    core radius for aug-charge                                                  
                                                                                                    
   Atomic configuration                                                                             
   11 entries                                                                                       
     n  l   j            E        occ.                                                              
     1  0  0.50    -19819.0341   2.0000                                                             
     2  0  0.50     -2799.0127   2.0000                                                             
     2  1  1.50     -2502.0276   6.0000                                                             
     3  0  0.50      -476.4449   2.0000                                                             
     3  1  1.50      -379.1496   6.0000                                                             
     3  2  2.50      -220.9367  10.0000                                                             
     4  0  0.50       -64.3378   2.0000                                                             
     5  0  0.50        -4.0862   1.0000                                                             
     4  1  1.50       -38.4773   6.0000                                                             
     4  2  2.50        -3.7535   5.0000                                                             
     4  3  2.50        -1.3606   0.0000                                                             
   Description                                                                                      
     l       E           TYP  RCUT    TYP  RCUT                                                     
     0    -64.3377829     23  2.100                                                                 
     0     -4.0861640     23  2.400                                                                 
     1    -38.4772993     23  2.100                                                                 
     1     13.6058260     23  2.100                                                                 
     2     -3.7534941     23  2.400                                                                 
     2     -5.1140767     23  2.400                                                                 
     3     -4.0817478     23  2.500                                                                 
  local pseudopotential read in
  partial core-charges read in
  partial kinetic energy density read in
  atomic valenz-charges read in
  non local Contribution for L=           0  read in
    real space projection operators read in
  non local Contribution for L=           0  read in
    real space projection operators read in
  non local Contribution for L=           1  read in
    real space projection operators read in
  non local Contribution for L=           1  read in
    real space projection operators read in
  non local Contribution for L=           2  read in
    real space projection operators read in
  non local Contribution for L=           2  read in
    real space projection operators read in
    PAW grid and wavefunctions read in
 
   number of l-projection  operators is LMAX  =           6
   number of lm-projection operators is LMMAX =          18
 
 POTCAR:    PAW_PBE Ta_pv 07Sep2000               
   SHA256 =  00d0a14a36c127416459414afb8617d9754996fffa60a2465888e660b20a452f Ta_pv/POTCAR          
   COPYR  = (c) Copyright 07Sep2000 Georg Kresse                                                    
   COPYR  = This file is part of the software VASP. Any use, copying, and all other rights are regul
   COPYR  = If you do not have a valid VASP license, you may not use, copy or distribute this file. 
   VRHFIN =Ta:  5p6s5d                                                                              
   LEXCH  = PE                                                                                      
   EATOM  =  1047.1984 eV,   76.9669 Ry                                                             
                                                                                                    
   TITEL  = PAW_PBE Ta_pv 07Sep2000                                                                 
   LULTRA =        F    use ultrasoft PP ?                                                          
   IUNSCR =        1    unscreen: 0-lin 1-nonlin 2-no                                               
   RPACOR =    2.330    partial core radius                                                         
   POMASS =  180.948; ZVAL   =   11.000    mass and valenz                                          
   RCORE  =    2.500    outmost cutoff radius                                                       
   RWIGS  =    2.840; RWIGS  =    1.503    wigner-seitz radius (au A)                               
   ENMAX  =  223.667; ENMIN  =  167.750 eV                                                          
   RCLOC  =    2.205    cutoff for local pot                                                        
   LCOR   =        T    correct aug charges                                                         
   LPAW   =        T    paw PP                                                                      
   EAUG   =  377.421                                                                                
   DEXC   =    0.000                                                                                
   RMAX   =    2.551    core radius for proj-oper                                                   
   RAUG   =    1.300    factor for augmentation sphere                                              
   RDEP   =    2.526    radius for radial grids                                                     
   RDEPT  =    2.132    core radius for aug-charge                                                  
                                                                                                    
   Atomic configuration                                                                             
   15 entries                                                                                       
     n  l   j            E        occ.                                                              
     1  0  0.50    -67341.2801   2.0000                                                             
     2  0  0.50    -11566.9369   2.0000                                                             
     2  1  1.50    -10134.1175   6.0000                                                             
     3  0  0.50     -2648.5614   2.0000                                                             
     3  1  1.50     -2222.6006   6.0000                                                             
     3  2  2.50     -1726.3114  10.0000                                                             
     4  0  0.50      -538.6957   2.0000                                                             
     4  1  1.50      -399.0125   6.0000                                                             
     4  2  2.50      -220.3955  10.0000                                                             
     4  3  3.50       -23.0371  14.0000                                                             
     5  0  0.50       -71.2900   2.0000                                                             
     5  1  1.50       -37.8224   6.0000                                                             
     5  2  2.50        -2.6455   4.0000                                                             
     6  0  0.50        -4.9623   1.0000                                                             
     5  3  2.50        -1.3606   0.0000                                                             
   Description                                                                                      
     l       E           TYP  RCUT    TYP  RCUT                                                     
     1    -37.8224449     23  2.500                                                                 
     1      1.3605826     23  2.500                                                                 
     2     -2.6454718     23  2.500                                                                 
     2     -0.6258570     23  2.500                                                                 
     0     -4.9622674     23  2.500                                                                 
     0      4.7531427     23  2.500                                                                 
  local pseudopotential read in
  partial core-charges read in
  partial kinetic energy density read in
  atomic valenz-charges read in
  non local Contribution for L=           1  read in
    real space projection operators read in
  non local Contribution for L=           1  read in
    real space projection operators read in
  non local Contribution for L=           2  read in
    real space projection operators read in
  non local Contribution for L=           2  read in
    real space projection operators read in
  non local Contribution for L=           0  read in
    real space projection operators read in
  non local Contribution for L=           0  read in
    real space projection operators read in
    PAW grid and wavefunctions read in
 
   number of l-projection  operators is LMAX  =           6
   number of lm-projection operators is LMMAX =          18
 
 POTCAR:    PAW_PBE W_sv 04Sep2015                
   SHA256 =  931c2d770f65867ef30f3db3421922900fc0890ebac5c3e12f63b6a2064023d7 W_sv/POTCAR           
   COPYR  = (c) Copyright 04Sep2015 Georg Kresse                                                    
   COPYR  = This file is part of the software VASP. Any use, copying, and all other rights are regul
   COPYR  = If you do not have a valid VASP license, you may not use, copy or distribute this file. 
   VRHFIN =W : 5p6s5d                                                                               
   LEXCH  = PE                                                                                      
   EATOM  =  1865.5791 eV,  137.1162 Ry                                                             
                                                                                                    
   TITEL  = PAW_PBE W_sv 04Sep2015                                                                  
   LULTRA =        F    use ultrasoft PP ?                                                          
   IUNSCR =        1    unscreen: 0-lin 1-nonlin 2-no                                               
   RPACOR =    2.330    partial core radius                                                         
   POMASS =  183.850; ZVAL   =   14.000    mass and valenz                                          
   RCORE  =    2.500    outmost cutoff radius                                                       
   RWIGS  =    2.750; RWIGS  =    1.455    wigner-seitz radius (au A)                               
   ENMAX  =  223.057; ENMIN  =  167.293 eV                                                          
   ICORE  =        3    local potential                                                             
   LCOR   =        T    correct aug charges                                                         
   LPAW   =        T    paw PP                                                                      
   EAUG   =  373.438                                                                                
   DEXC   =    0.000                                                                                
   RMAX   =    2.565    core radius for proj-oper                                                   
   RAUG   =    1.300    factor for augmentation sphere                                              
   RDEP   =    2.539    radius for radial grids                                                     
   RDEPT  =    2.126    core radius for aug-charge                                                  
                                                                                                    
   Atomic configuration                                                                             
   15 entries                                                                                       
     n  l   j            E        occ.                                                              
     1  0  0.50    -69465.5834   2.0000                                                             
     2  0  0.50    -11986.2640   2.0000                                                             
     2  1  1.50    -10479.8613   6.0000                                                             
     3  0  0.50     -2759.0756   2.0000                                                             
     3  1  1.50     -2313.1855   6.0000                                                             
     3  2  2.50     -1801.1183  10.0000                                                             
     4  0  0.50      -567.6789   2.0000                                                             
     4  1  1.50      -421.4692   6.0000                                                             
     4  2  2.50      -236.3471  10.0000                                                             
     4  3  3.50       -31.2665  14.0000                                                             
     5  0  0.50       -77.1084   2.0000                                                             
     6  0  0.50        -5.1438   1.0000                                                             
     5  1  1.50       -41.3856   6.0000                                                             
     5  2  2.50        -3.3185   5.0000                                                             
     5  3  2.50        -1.3606   0.0000                                                             
   Description                                                                                      
     l       E           TYP  RCUT    TYP  RCUT                                                     
     0    -77.1084470     23  2.100                                                                 
     0     -5.1437956     23  2.300                                                                 
     1    -41.3855615     23  2.500                                                                 
     1     -2.7211652     23  2.500                                                                 
     2     -3.3185025     23  2.500                                                                 
     2     -1.5965151     23  2.500                                                                 
     3     -1.3605826     23  2.500                                                                 
  local pseudopotential read in
  partial core-charges read in
  partial kinetic energy density read in
  kinetic energy density of atom read in
  atomic valenz-charges read in
  non local Contribution for L=           0  read in
    real space projection operators read in
  non local Contribution for L=           0  read in
    real space projection operators read in
  non local Contribution for L=           1  read in
    real space projection operators read in
  non local Contribution for L=           1  read in
    real space projection operators read in
  non local Contribution for L=           2  read in
    real space projection operators read in
  non local Contribution for L=           2  read in
    real space projection operators read in
    PAW grid and wavefunctions read in
 
   number of l-projection  operators is LMAX  =           6
   number of lm-projection operators is LMMAX =          18
 
 -----------------------------------------------------------------------------
|                                                                             |
|               ----> ADVICE to this user running VASP <----                  |
|                                                                             |
|     You have a (more or less) 'large supercell' and for larger cells it     |
|     might be more efficient to use real-space projection operators.         |
|     Therefore, try LREAL= Auto in the INCAR file.                           |
|     Mind: For very accurate calculation, you might also keep the            |
|     reciprocal projection scheme (i.e. LREAL=.FALSE.).                      |
|                                                                             |
 -----------------------------------------------------------------------------

  PAW_PBE Nb_sv 25May2007               :
 energy of atom  1       EATOM=-1555.1913
 kinetic energy error for atom=    0.2155 (will be added to EATOM!!)
  PAW_PBE Mo_sv 02Feb2006               :
 energy of atom  2       EATOM=-1862.2866
 kinetic energy error for atom=    0.1102 (will be added to EATOM!!)
  PAW_PBE Ta_pv 07Sep2000               :
 energy of atom  3       EATOM=-1047.1984
 kinetic energy error for atom=    0.0394 (will be added to EATOM!!)
  PAW_PBE W_sv 04Sep2015                :
 energy of atom  4       EATOM=-1865.5791
 kinetic energy error for atom=    0.0589 (will be added to EATOM!!)
 
 
 POSCAR: Nb-Mo-Ta-W alloy
  positions in direct lattice
  No initial velocities read in
 exchange correlation table for  LEXCH =        8
   RHO(1)=    0.500       N(1)  =     2000
   RHO(2)=  100.500       N(2)  =     4000
 


--------------------------------------------------------------------------------------------------------


 ion  position               nearest neighbor table
   1  0.875  0.750  0.750-   6 2.85   8 2.85  11 2.85  14 2.85  16 2.85  19 2.85  25 2.85  26 2.85
                            15 3.29  20 3.29  20 3.29
   2  0.875  0.250  0.250-   6 2.85   8 2.85  11 2.85  14 2.85  16 2.85  19 2.85  25 2.85  26 2.85
                            17 3.29  20 3.29  20 3.29
   3  0.375  0.250  0.750-   4 2.85  10 2.85  12 2.85  13 2.85  23 2.85  28 2.85  31 2.85  32 2.85
                            18 3.29
   4  0.250  0.500  0.500-   3 2.85   7 2.85   9 2.85  15 2.85  17 2.85  18 2.85  22 2.85  30 2.85

   5  0.625  0.250  0.750-   8 2.85  12 2.85  16 2.85  19 2.85  23 2.85  25 2.85  31 2.85  32 2.85
                            20 3.29
   6  0.000  0.000  0.500-   1 2.85   2 2.85  15 2.85  17 2.85  18 2.85  20 2.85  22 2.85  24 2.85
                            16 3.29  11 3.29  11 3.29
   7  0.375  0.750  0.250-   4 2.85  10 2.85  12 2.85  13 2.85  23 2.85  28 2.85  31 2.85  32 2.85
                            21 3.29  30 3.29  22 3.29   9 3.29  30 3.29   9 3.29
   8  0.750  0.000  0.000-   1 2.85   2 2.85   5 2.85  20 2.85  21 2.85  24 2.85  27 2.85  29 2.85
                            25 3.29  16 3.29  11 3.29  31 3.29  16 3.29  25 3.29
   9  0.375  0.250  0.250-   4 2.85  10 2.85  12 2.85  13 2.85  23 2.85  28 2.85  31 2.85  32 2.85
                            29 3.29   7 3.29  17 3.29   7 3.29
  10  0.250  0.000  0.500-   3 2.85   7 2.85   9 2.85  15 2.85  17 2.85  18 2.85  22 2.85  30 2.85
                            23 3.29  13 3.29  13 3.29
  11  0.000  0.000  0.000-   1 2.85   2 2.85  15 2.85  17 2.85  18 2.85  20 2.85  22 2.85  24 2.85
                            13 3.29  14 3.29   6 3.29   8 3.29   6 3.29  14 3.29
  12  0.500  0.500  0.000-   3 2.85   5 2.85   7 2.85   9 2.85  21 2.85  27 2.85  29 2.85  30 2.85
                            25 3.29  28 3.29  31 3.29  32 3.29  32 3.29  31 3.29
  13  0.250  0.000  0.000-   3 2.85   7 2.85   9 2.85  15 2.85  17 2.85  18 2.85  22 2.85  30 2.85
                            11 3.29  28 3.29  10 3.29  31 3.29  10 3.29  28 3.29
  14  0.000  0.500  0.000-   1 2.85   2 2.85  15 2.85  17 2.85  18 2.85  20 2.85  22 2.85  24 2.85
                            11 3.29  25 3.29  26 3.29  28 3.29  26 3.29  11 3.29
  15  0.125  0.750  0.750-   4 2.85   6 2.85  10 2.85  11 2.85  13 2.85  14 2.85  26 2.85  28 2.85
                            22 3.29   1 3.29  18 3.29  30 3.29  22 3.29  18 3.29
  16  0.750  0.000  0.500-   1 2.85   2 2.85   5 2.85  20 2.85  21 2.85  24 2.85  27 2.85  29 2.85
                            23 3.29  19 3.29   6 3.29   8 3.29   8 3.29  19 3.29
  17  0.125  0.250  0.250-   4 2.85   6 2.85  10 2.85  11 2.85  13 2.85  14 2.85  26 2.85  28 2.85
                            18 3.29  22 3.29   2 3.29   9 3.29  18 3.29  22 3.29
  18  0.125  0.250  0.750-   4 2.85   6 2.85  10 2.85  11 2.85  13 2.85  14 2.85  26 2.85  28 2.85
                            17 3.29  20 3.29   3 3.29  15 3.29  17 3.29  15 3.29
  19  0.750  0.500  0.500-   1 2.85   2 2.85   5 2.85  20 2.85  21 2.85  24 2.85  27 2.85  29 2.85
                            26 3.29  16 3.29  25 3.29  32 3.29  25 3.29  16 3.29
  20  0.875  0.250  0.750-   6 2.85   8 2.85  11 2.85  14 2.85  16 2.85  19 2.85  25 2.85  26 2.85
                            18 3.29   5 3.29   1 3.29   2 3.29   2 3.29   1 3.29
  21  0.625  0.750  0.250-   8 2.85  12 2.85  16 2.85  19 2.85  23 2.85  25 2.85  31 2.85  32 2.85
                            27 3.29  29 3.29  24 3.29   7 3.29  27 3.29  29 3.29
  22  0.125  0.750  0.250-   4 2.85   6 2.85  10 2.85  11 2.85  13 2.85  14 2.85  26 2.85  28 2.85
                            17 3.29  24 3.29   7 3.29  15 3.29  15 3.29  17 3.29
  23  0.500  0.000  0.500-   3 2.85   5 2.85   7 2.85   9 2.85  21 2.85  27 2.85  29 2.85  30 2.85
                            10 3.29  16 3.29  31 3.29  32 3.29  31 3.29  32 3.29
  24  0.875  0.750  0.250-   6 2.85   8 2.85  11 2.85  14 2.85  16 2.85  19 2.85  25 2.85  26 2.85
                            21 3.29  22 3.29
  25  0.750  0.500  0.000-   1 2.85   2 2.85   5 2.85  20 2.85  21 2.85  24 2.85  27 2.85  29 2.85
                            12 3.29  14 3.29  19 3.29   8 3.29  19 3.29   8 3.29
  26  0.000  0.500  0.500-   1 2.85   2 2.85  15 2.85  17 2.85  18 2.85  20 2.85  22 2.85  24 2.85
                            19 3.29  14 3.29  14 3.29
  27  0.625  0.750  0.750-   8 2.85  12 2.85  16 2.85  19 2.85  23 2.85  25 2.85  31 2.85  32 2.85
                            21 3.29  30 3.29  21 3.29
  28  0.250  0.500  0.000-   3 2.85   7 2.85   9 2.85  15 2.85  17 2.85  18 2.85  22 2.85  30 2.85
                            14 3.29  12 3.29  13 3.29  13 3.29
  29  0.625  0.250  0.250-   8 2.85  12 2.85  16 2.85  19 2.85  23 2.85  25 2.85  31 2.85  32 2.85
                             9 3.29  21 3.29  21 3.29
  30  0.375  0.750  0.750-   4 2.85  10 2.85  12 2.85  13 2.85  23 2.85  28 2.85  31 2.85  32 2.85
                            15 3.29   7 3.29  27 3.29   7 3.29
  31  0.500  0.000  0.000-   3 2.85   5 2.85   7 2.85   9 2.85  21 2.85  27 2.85  29 2.85  30 2.85
                            23 3.29  12 3.29  13 3.29   8 3.29  23 3.29  12 3.29
  32  0.500  0.500  0.500-   3 2.85   5 2.85   7 2.85   9 2.85  21 2.85  27 2.85  29 2.85  30 2.85
                            19 3.29  12 3.29  23 3.29  12 3.29  23 3.29
 
  LATTYP: Found a simple tetragonal cell.
 ALAT       =     6.5800000000
 C/A-ratio  =     2.0000000000
  
  Lattice vectors:
  
 A1 = (   0.0000000000,   6.5800000000,   0.0000000000)
 A2 = (   0.0000000000,   0.0000000000,   6.5800000000)
 A3 = (  13.1600000000,   0.0000000000,   0.0000000000)


Analysis of symmetry for initial positions (statically):
=====================================================================
 Subroutine PRICEL returns:
 Original cell was already a primitive cell.
 

 Routine SETGRP: Setting up the symmetry group for a 
 simple tetragonal supercell.


 Subroutine GETGRP returns: Found  1 space group operations
 (whereof  1 operations were pure point group operations)
 out of a pool of 16 trial point group operations.


The static configuration has the point symmetry C_1 .


Analysis of symmetry for dynamics (positions and initial velocities):
=====================================================================
 Subroutine PRICEL returns:
 Original cell was already a primitive cell.
 

 Routine SETGRP: Setting up the symmetry group for a 
 simple tetragonal supercell.


 Subroutine GETGRP returns: Found  1 space group operations
 (whereof  1 operations were pure point group operations)
 out of a pool of 16 trial point group operations.


The dynamic configuration has the point symmetry C_1 .


 Subroutine INISYM returns: Found  1 space group operations
 (whereof  1 operations are pure point group operations),
 and found     1 'primitive' translations


----------------------------------------------------------------------------------------

                                     Primitive cell                                     

  volume of cell :     569.7806

  direct lattice vectors                    reciprocal lattice vectors
    13.160000000  0.000000000  0.000000000     0.075987842  0.000000000  0.000000000
     0.000000000  6.580000000  0.000000000     0.000000000  0.151975684  0.000000000
     0.000000000  0.000000000  6.580000000     0.000000000  0.000000000  0.151975684

  length of vectors
    13.160000000  6.580000000  6.580000000     0.075987842  0.151975684  0.151975684

  position of ions in fractional coordinates (direct lattice)
     0.875000000  0.750000000  0.750000000
     0.875000000  0.250000000  0.250000000
     0.375000000  0.250000000  0.750000000
     0.250000000  0.500000000  0.500000000
     0.625000000  0.250000000  0.750000000
     0.000000000  0.000000000  0.500000000
     0.375000000  0.750000000  0.250000000
     0.750000000  0.000000000  0.000000000
     0.375000000  0.250000000  0.250000000
     0.250000000  0.000000000  0.500000000
     0.000000000  0.000000000  0.000000000
     0.500000000  0.500000000  0.000000000
     0.250000000  0.000000000  0.000000000
     0.000000000  0.500000000  0.000000000
     0.125000000  0.750000000  0.750000000
     0.750000000  0.000000000  0.500000000
     0.125000000  0.250000000  0.250000000
     0.125000000  0.250000000  0.750000000
     0.750000000  0.500000000  0.500000000
     0.875000000  0.250000000  0.750000000
     0.625000000  0.750000000  0.250000000
     0.125000000  0.750000000  0.250000000
     0.500000000  0.000000000  0.500000000
     0.875000000  0.750000000  0.250000000
     0.750000000  0.500000000  0.000000000
     0.000000000  0.500000000  0.500000000
     0.625000000  0.750000000  0.750000000
     0.250000000  0.500000000  0.000000000
     0.625000000  0.250000000  0.250000000
     0.375000000  0.750000000  0.750000000
     0.500000000  0.000000000  0.000000000
     0.500000000  0.500000000  0.500000000

  ion indices of the primitive-cell ions
   primitive index   ion index
                 1           1
                 2           2
                 3           3
                 4           4
                 5           5
                 6           6
                 7           7
                 8           8
                 9           9
                10          10
                11          11
                12          12
                13          13
                14          14
                15          15
                16          16
                17          17
                18          18
                19          19
                20          20
                21          21
                22          22
                23          23
                24          24
                25          25
                26          26
                27          27
                28          28
                29          29
                30          30
                31          31
                32          32

----------------------------------------------------------------------------------------

 
 
 KPOINTS: K-Spacing Value to Generate K-Mesh: 0.03

Automatic generation of k-mesh.
 Grid dimensions read from file:
 generate k-points for:    3    5    5

 Generating k-lattice:

  Cartesian coordinates                     Fractional coordinates (reciprocal lattice)
     0.025329281  0.000000000  0.000000000     0.333333333  0.000000000  0.000000000
     0.000000000  0.030395137  0.000000000     0.000000000  0.200000000  0.000000000
     0.000000000  0.000000000  0.030395137     0.000000000  0.000000000  0.200000000

  Length of vectors
     0.025329281  0.030395137  0.030395137

  Shift w.r.t. Gamma in fractional coordinates (k-lattice)
     0.000000000  0.000000000  0.000000000

 
 Subroutine IBZKPT returns following result:
 ===========================================
 
 Found     38 irreducible k-points:
 
 Following reciprocal coordinates:
            Coordinates               Weight
  0.000000  0.000000  0.000000      1.000000
  0.333333  0.000000  0.000000      2.000000
  0.000000  0.200000  0.000000      2.000000
  0.000000  0.000000  0.200000      2.000000
  0.333333  0.200000  0.000000      2.000000
  0.333333  0.000000  0.200000      2.000000
  0.333333 -0.200000  0.000000      2.000000
  0.333333  0.000000 -0.200000      2.000000
  0.000000  0.400000  0.000000      2.000000
  0.000000  0.000000  0.400000      2.000000
  0.333333  0.400000  0.000000      2.000000
  0.333333  0.000000  0.400000      2.000000
  0.333333 -0.400000  0.000000      2.000000
  0.333333  0.000000 -0.400000      2.000000
  0.000000  0.200000  0.200000      2.000000
  0.000000 -0.200000  0.200000      2.000000
  0.333333  0.200000  0.200000      2.000000
  0.333333 -0.200000  0.200000      2.000000
  0.333333 -0.200000 -0.200000      2.000000
  0.333333  0.200000 -0.200000      2.000000
  0.000000  0.400000  0.200000      2.000000
  0.000000 -0.200000  0.400000      2.000000
  0.000000 -0.400000  0.200000      2.000000
  0.000000  0.200000  0.400000      2.000000
  0.333333  0.400000  0.200000      2.000000
  0.333333 -0.200000  0.400000      2.000000
  0.333333 -0.400000 -0.200000      2.000000
  0.333333  0.200000 -0.400000      2.000000
 -0.333333 -0.400000  0.200000      2.000000
 -0.333333  0.200000  0.400000      2.000000
 -0.333333  0.400000 -0.200000      2.000000
 -0.333333 -0.200000 -0.400000      2.000000
  0.000000  0.400000  0.400000      2.000000
  0.000000 -0.400000  0.400000      2.000000
  0.333333  0.400000  0.400000      2.000000
  0.333333 -0.400000  0.400000      2.000000
  0.333333 -0.400000 -0.400000      2.000000
  0.333333  0.400000 -0.400000      2.000000
 
 Following cartesian coordinates:
            Coordinates               Weight
  0.000000  0.000000  0.000000      1.000000
  0.025329  0.000000  0.000000      2.000000
  0.000000  0.030395  0.000000      2.000000
  0.000000  0.000000  0.030395      2.000000
  0.025329  0.030395  0.000000      2.000000
  0.025329  0.000000  0.030395      2.000000
  0.025329 -0.030395  0.000000      2.000000
  0.025329  0.000000 -0.030395      2.000000
  0.000000  0.060790  0.000000      2.000000
  0.000000  0.000000  0.060790      2.000000
  0.025329  0.060790  0.000000      2.000000
  0.025329  0.000000  0.060790      2.000000
  0.025329 -0.060790  0.000000      2.000000
  0.025329  0.000000 -0.060790      2.000000
  0.000000  0.030395  0.030395      2.000000
  0.000000 -0.030395  0.030395      2.000000
  0.025329  0.030395  0.030395      2.000000
  0.025329 -0.030395  0.030395      2.000000
  0.025329 -0.030395 -0.030395      2.000000
  0.025329  0.030395 -0.030395      2.000000
  0.000000  0.060790  0.030395      2.000000
  0.000000 -0.030395  0.060790      2.000000
  0.000000 -0.060790  0.030395      2.000000
  0.000000  0.030395  0.060790      2.000000
  0.025329  0.060790  0.030395      2.000000
  0.025329 -0.030395  0.060790      2.000000
  0.025329 -0.060790 -0.030395      2.000000
  0.025329  0.030395 -0.060790      2.000000
 -0.025329 -0.060790  0.030395      2.000000
 -0.025329  0.030395  0.060790      2.000000
 -0.025329  0.060790 -0.030395      2.000000
 -0.025329 -0.030395 -0.060790      2.000000
  0.000000  0.060790  0.060790      2.000000
  0.000000 -0.060790  0.060790      2.000000
  0.025329  0.060790  0.060790      2.000000
  0.025329 -0.060790  0.060790      2.000000
  0.025329 -0.060790 -0.060790      2.000000
  0.025329  0.060790 -0.060790      2.000000
 


--------------------------------------------------------------------------------------------------------




 Dimension of arrays:
   k-points           NKPTS =     38   k-points in BZ     NKDIM =     38   number of bands    NBANDS=    248
   number of dos      NEDOS =    301   number of ions     NIONS =     32
   non local maximal  LDIM  =      6   non local SUM 2l+1 LMDIM =     18
   total plane-waves  NPLWV =  90720
   max r-space proj   IRMAX =      1   max aug-charges    IRDMAX=   9287
   dimension x,y,z NGX =    70 NGY =   36 NGZ =   36
   dimension x,y,z NGXF=   140 NGYF=   72 NGZF=   72
   support grid    NGXF=   140 NGYF=   72 NGZF=   72
   ions per type =               6   4  10  12
   NGX,Y,Z   is equivalent  to a cutoff of   8.84,  9.10,  9.10 a.u.
   NGXF,Y,Z  is equivalent  to a cutoff of  17.69, 18.19, 18.19 a.u.

 SYSTEM =  unknown system                          
 POSCAR =  Nb-Mo-Ta-W alloy                        

 Startparameter for this run:
   NWRITE =      2    write-flag & timer
   PREC   = accura    normal or accurate (medium, high low for compatibility)
   ISTART =      0    job   : 0-new  1-cont  2-samecut
   ICHARG =      2    charge: 1-file 2-atom 10-const
   ISPIN  =      1    spin polarized calculation?
   LNONCOLLINEAR =      F non collinear calculations
   LSORBIT =      F    spin-orbit coupling
   INIWAV =      1    electr: 0-lowe 1-rand  2-diag
   LASPH  =      F    aspherical Exc in radial PAW
 Electronic Relaxation 1
   ENCUT  =  250.0 eV  18.37 Ry    4.29 a.u.  16.97  8.48  8.48*2*pi/ulx,y,z
   ENINI  =  250.0     initial cutoff
   ENAUG  =  455.7 eV  augmentation charge cutoff
   NELM   =     80;   NELMIN=  2; NELMDL= -5     # of ELM steps 
   EDIFF  = 0.1E-07   stopping-criterion for ELM
   LREAL  =      F    real-space projection
   NLSPLINE    = F    spline interpolate recip. space projectors
   LCOMPAT=      F    compatible to vasp.4.4
   GGA_COMPAT  = T    GGA compatible to vasp.4.4-vasp.4.6
   LMAXPAW     = -100 max onsite density
   LMAXMIX     =    2 max onsite mixed and CHGCAR
   VOSKOWN=      0    Vosko Wilk Nusair interpolation
   ROPT   =    0.00000   0.00000   0.00000   0.00000
 Ionic relaxation
   EDIFFG = -.1E-01   stopping-criterion for IOM
   NSW    =      0    number of steps for IOM
   NBLOCK =      1;   KBLOCK =      1    inner block; outer block 
   IBRION =     -1    ionic relax: 0-MD 1-quasi-New 2-CG
   NFREE  =      0    steps in history (QN), initial steepest desc. (CG)
   ISIF   =      2    stress and relaxation
   IWAVPR =     10    prediction:  0-non 1-charg 2-wave 3-comb
   ISYM   =      2    0-nonsym 1-usesym 2-fastsym
   LCORR  =      T    Harris-Foulkes like correction to forces

   POTIM  = 0.5000    time-step for ionic-motion
   TEIN   =    0.0    initial temperature
   TEBEG  =    0.0;   TEEND  =   0.0 temperature during run
   SMASS  =  -3.00    Nose mass-parameter (am)
   estimated Nose-frequenzy (Omega)   =  0.10E-29 period in steps = 0.13E+47 mass=  -0.396E-26a.u.
   SCALEE = 1.0000    scale energy and forces
   NPACO  =    256;   APACO  = 10.0  distance and # of slots for P.C.
   PSTRESS=    0.0 pullay stress

  Mass of Ions in am
   POMASS =  92.91 95.94180.95183.85
  Ionic Valenz
   ZVAL   =  13.00 14.00 11.00 14.00
  Atomic Wigner-Seitz radii
   RWIGS  =  -1.00 -1.00 -1.00 -1.00
  virtual crystal weights 
   VCA    =   1.00  1.00  1.00  1.00
   NELECT =     412.0000    total number of electrons
   NUPDOWN=      -1.0000    fix difference up-down

 DOS related values:
   EMIN   =  10.00;   EMAX   =-10.00  energy-range for DOS
   EFERMI =   0.00
   ISMEAR =     0;   SIGMA  =   0.02  broadening in eV -4-tet -1-fermi 0-gaus

 Electronic relaxation 2 (details)
   IALGO  =     38    algorithm
   LDIAG  =      T    sub-space diagonalisation (order eigenvalues)
   LSUBROT=      F    optimize rotation matrix (better conditioning)
   TURBO    =      0    0=normal 1=particle mesh
   IRESTART =      0    0=no restart 2=restart with 2 vectors
   NREBOOT  =      0    no. of reboots
   NMIN     =      0    reboot dimension
   EREF     =   0.00    reference energy to select bands
   IMIX   =      4    mixing-type and parameters
     AMIX     =   0.40;   BMIX     =  1.00
     AMIX_MAG =   1.60;   BMIX_MAG =  1.00
     AMIN     =   0.10
     WC   =   100.;   INIMIX=   1;  MIXPRE=   1;  MAXMIX= -45

 Intra band minimization:
   WEIMIN = 0.0000     energy-eigenvalue tresh-hold
   EBREAK =  0.10E-10  absolut break condition
   DEPER  =   0.30     relativ break condition  

   TIME   =   0.40     timestep for ELM

  volume/ion in A,a.u.               =      17.81       120.16
  Fermi-wavevector in a.u.,A,eV,Ry     =   1.469393  2.776750 29.376560  2.159116
  Thomas-Fermi vector in A             =   2.584776
 
 Write flags
   LWAVE        =      F    write WAVECAR
   LDOWNSAMPLE  =      F    k-point downsampling of WAVECAR
   LCHARG       =      F    write CHGCAR
   LVTOT        =      F    write LOCPOT, total local potential
   LVHAR        =      F    write LOCPOT, Hartree potential only
   LELF         =      F    write electronic localiz. function (ELF)
   LORBIT       =      0    0 simple, 1 ext, 2 COOP (PROOUT), +10 PAW based schemes


 Dipole corrections
   LMONO  =      F    monopole corrections only (constant potential shift)
   LDIPOL =      F    correct potential (dipole corrections)
   IDIPOL =      0    1-x, 2-y, 3-z, 4-all directions 
   EPSILON=  1.0000000 bulk dielectric constant

 Core level calculations are selected ICORELEVEL =  1
 Exchange correlation treatment:
   GGA     =    PE    GGA type
   LEXCH   =     8    internal setting for exchange type
   LIBXC   =     F    Libxc                    
   VOSKOWN =     0    Vosko Wilk Nusair interpolation
   LHFCALC =     F    Hartree Fock is set to
   LHFONE  =     F    Hartree Fock one center treatment
   AEXX    =    0.0000 exact exchange contribution

 Linear response parameters
   LEPSILON=     F    determine dielectric tensor
   LRPA    =     F    only Hartree local field effects (RPA)
   LNABLA  =     F    use nabla operator in PAW spheres
   LVEL    =     F    velocity operator in full k-point grid
   CSHIFT  =0.1000    complex shift for real part using Kramers Kronig
   OMEGAMAX=  -1.0    maximum frequency
   DEG_THRESHOLD= 0.2000000E-02 threshold for treating states as degnerate
   RTIME   =   -0.100 relaxation time in fs
  (WPLASMAI=    0.000 imaginary part of plasma frequency in eV, 0.658/RTIME)
   DFIELD  = 0.0000000 0.0000000 0.0000000 field for delta impulse in time
 
  Optional k-point grid parameters
   LKPOINTS_OPT  =     F    use optional k-point grid
   KPOINTS_OPT_MODE=     1    mode for optional k-point grid
 
 Orbital magnetization related:
   ORBITALMAG=     F  switch on orbital magnetization
   LCHIMAG   =     F  perturbation theory with respect to B field
   DQ        =  0.001000  dq finite difference perturbation B field
   LLRAUG    =     F  two centre corrections for induced B field



--------------------------------------------------------------------------------------------------------


 Static calculation
 charge density and potential will be updated during run
 non-spin polarized calculation
 Variant of blocked Davidson
 Davidson routine will perform the subspace rotation
 perform sub-space diagonalisation
    after iterative eigenvector-optimisation
 modified Broyden-mixing scheme, WC =      100.0
 initial mixing is a Kerker type mixing with AMIX =  0.4000 and BMIX =      1.0000
 Hartree-type preconditioning will be used
 using additional bands           42
 reciprocal scheme for non local part
 use partial core corrections
 calculate Harris-corrections to forces 
   (improved forces if not selfconsistent)
 use gradient corrections 
 use of overlap-Matrix (Vanderbilt PP)
 Gauss-broadening in eV      SIGMA  =   0.02


--------------------------------------------------------------------------------------------------------


  energy-cutoff  :      250.00
  volume of cell :      569.78
      direct lattice vectors                 reciprocal lattice vectors
    13.160000000  0.000000000  0.000000000     0.075987842  0.000000000  0.000000000
     0.000000000  6.580000000  0.000000000     0.000000000  0.151975684  0.000000000
     0.000000000  0.000000000  6.580000000     0.000000000  0.000000000  0.151975684

  length of vectors
    13.160000000  6.580000000  6.580000000     0.075987842  0.151975684  0.151975684


 
 k-points in units of 2pi/SCALE and weight: K-Spacing Value to Generate K-Mesh: 0.03
   0.00000000  0.00000000  0.00000000       0.013
   0.02532928  0.00000000  0.00000000       0.027
   0.00000000  0.03039514  0.00000000       0.027
   0.00000000  0.00000000  0.03039514       0.027
   0.02532928  0.03039514  0.00000000       0.027
   0.02532928  0.00000000  0.03039514       0.027
   0.02532928 -0.03039514  0.00000000       0.027
   0.02532928  0.00000000 -0.03039514       0.027
   0.00000000  0.06079027  0.00000000       0.027
   0.00000000  0.00000000  0.06079027       0.027
   0.02532928  0.06079027  0.00000000       0.027
   0.02532928  0.00000000  0.06079027       0.027
   0.02532928 -0.06079027  0.00000000       0.027
   0.02532928  0.00000000 -0.06079027       0.027
   0.00000000  0.03039514  0.03039514       0.027
   0.00000000 -0.03039514  0.03039514       0.027
   0.02532928  0.03039514  0.03039514       0.027
   0.02532928 -0.03039514  0.03039514       0.027
   0.02532928 -0.03039514 -0.03039514       0.027
   0.02532928  0.03039514 -0.03039514       0.027
   0.00000000  0.06079027  0.03039514       0.027
   0.00000000 -0.03039514  0.06079027       0.027
   0.00000000 -0.06079027  0.03039514       0.027
   0.00000000  0.03039514  0.06079027       0.027
   0.02532928  0.06079027  0.03039514       0.027
   0.02532928 -0.03039514  0.06079027       0.027
   0.02532928 -0.06079027 -0.03039514       0.027
   0.02532928  0.03039514 -0.06079027       0.027
  -0.02532928 -0.06079027  0.03039514       0.027
  -0.02532928  0.03039514  0.06079027       0.027
  -0.02532928  0.06079027 -0.03039514       0.027
  -0.02532928 -0.03039514 -0.06079027       0.027
   0.00000000  0.06079027  0.06079027       0.027
   0.00000000 -0.06079027  0.06079027       0.027
   0.02532928  0.06079027  0.06079027       0.027
   0.02532928 -0.06079027  0.06079027       0.027
   0.02532928 -0.06079027 -0.06079027       0.027
   0.02532928  0.06079027 -0.06079027       0.027
 
 k-points in reciprocal lattice and weights: K-Spacing Value to Generate K-Mesh: 0.03
   0.00000000  0.00000000  0.00000000       0.013
   0.33333333  0.00000000  0.00000000       0.027
   0.00000000  0.20000000  0.00000000       0.027
   0.00000000  0.00000000  0.20000000       0.027
   0.33333333  0.20000000  0.00000000       0.027
   0.33333333  0.00000000  0.20000000       0.027
   0.33333333 -0.20000000  0.00000000       0.027
   0.33333333  0.00000000 -0.20000000       0.027
   0.00000000  0.40000000  0.00000000       0.027
   0.00000000  0.00000000  0.40000000       0.027
   0.33333333  0.40000000  0.00000000       0.027
   0.33333333  0.00000000  0.40000000       0.027
   0.33333333 -0.40000000  0.00000000       0.027
   0.33333333  0.00000000 -0.40000000       0.027
   0.00000000  0.20000000  0.20000000       0.027
   0.00000000 -0.20000000  0.20000000       0.027
   0.33333333  0.20000000  0.20000000       0.027
   0.33333333 -0.20000000  0.20000000       0.027
   0.33333333 -0.20000000 -0.20000000       0.027
   0.33333333  0.20000000 -0.20000000       0.027
   0.00000000  0.40000000  0.20000000       0.027
   0.00000000 -0.20000000  0.40000000       0.027
   0.00000000 -0.40000000  0.20000000       0.027
   0.00000000  0.20000000  0.40000000       0.027
   0.33333333  0.40000000  0.20000000       0.027
   0.33333333 -0.20000000  0.40000000       0.027
   0.33333333 -0.40000000 -0.20000000       0.027
   0.33333333  0.20000000 -0.40000000       0.027
  -0.33333333 -0.40000000  0.20000000       0.027
  -0.33333333  0.20000000  0.40000000       0.027
  -0.33333333  0.40000000 -0.20000000       0.027
  -0.33333333 -0.20000000 -0.40000000       0.027
   0.00000000  0.40000000  0.40000000       0.027
   0.00000000 -0.40000000  0.40000000       0.027
   0.33333333  0.40000000  0.40000000       0.027
   0.33333333 -0.40000000  0.40000000       0.027
   0.33333333 -0.40000000 -0.40000000       0.027
   0.33333333  0.40000000 -0.40000000       0.027
 
 position of ions in fractional coordinates (direct lattice) 
   0.87500000  0.75000000  0.75000000
   0.87500000  0.25000000  0.25000000
   0.37500000  0.25000000  0.75000000
   0.25000000  0.50000000  0.50000000
   0.62500000  0.25000000  0.75000000
   0.00000000  0.00000000  0.50000000
   0.37500000  0.75000000  0.25000000
   0.75000000  0.00000000  0.00000000
   0.37500000  0.25000000  0.25000000
   0.25000000  0.00000000  0.50000000
   0.00000000  0.00000000  0.00000000
   0.50000000  0.50000000  0.00000000
   0.25000000  0.00000000  0.00000000
   0.00000000  0.50000000  0.00000000
   0.12500000  0.75000000  0.75000000
   0.75000000  0.00000000  0.50000000
   0.12500000  0.25000000  0.25000000
   0.12500000  0.25000000  0.75000000
   0.75000000  0.50000000  0.50000000
   0.87500000  0.25000000  0.75000000
   0.62500000  0.75000000  0.25000000
   0.12500000  0.75000000  0.25000000
   0.50000000  0.00000000  0.50000000
   0.87500000  0.75000000  0.25000000
   0.75000000  0.50000000  0.00000000
   0.00000000  0.50000000  0.50000000
   0.62500000  0.75000000  0.75000000
   0.25000000  0.50000000  0.00000000
   0.62500000  0.25000000  0.25000000
   0.37500000  0.75000000  0.75000000
   0.50000000  0.00000000  0.00000000
   0.50000000  0.50000000  0.50000000
 
 position of ions in cartesian coordinates  (Angst):
  11.51500000  4.93500000  4.93500000
  11.51500000  1.64500000  1.64500000
   4.93500000  1.64500000  4.93500000
   3.29000000  3.29000000  3.29000000
   8.22500000  1.64500000  4.93500000
   0.00000000  0.00000000  3.29000000
   4.93500000  4.93500000  1.64500000
   9.87000000  0.00000000  0.00000000
   4.93500000  1.64500000  1.64500000
   3.29000000  0.00000000  3.29000000
   0.00000000  0.00000000  0.00000000
   6.58000000  3.29000000  0.00000000
   3.29000000  0.00000000  0.00000000
   0.00000000  3.29000000  0.00000000
   1.64500000  4.93500000  4.93500000
   9.87000000  0.00000000  3.29000000
   1.64500000  1.64500000  1.64500000
   1.64500000  1.64500000  4.93500000
   9.87000000  3.29000000  3.29000000
  11.51500000  1.64500000  4.93500000
   8.22500000  4.93500000  1.64500000
   1.64500000  4.93500000  1.64500000
   6.58000000  0.00000000  3.29000000
  11.51500000  4.93500000  1.64500000
   9.87000000  3.29000000  0.00000000
   0.00000000  3.29000000  3.29000000
   8.22500000  4.93500000  4.93500000
   3.29000000  3.29000000  0.00000000
   8.22500000  1.64500000  1.64500000
   4.93500000  4.93500000  4.93500000
   6.58000000  0.00000000  0.00000000
   6.58000000  3.29000000  3.29000000
 


--------------------------------------------------------------------------------------------------------


 k-point   1 :   0.0000 0.0000 0.0000  plane waves:    5077
 k-point   2 :   0.3333 0.0000 0.0000  plane waves:    5118
 k-point   3 :   0.0000 0.2000 0.0000  plane waves:    5099
 k-point   4 :   0.0000 0.0000 0.2000  plane waves:    5099
 k-point   5 :   0.3333 0.2000 0.0000  plane waves:    5140
 k-point   6 :   0.3333 0.0000 0.2000  plane waves:    5140
 k-point   7 :   0.3333-0.2000 0.0000  plane waves:    5140
 k-point   8 :   0.3333 0.0000-0.2000  plane waves:    5140
 k-point   9 :   0.0000 0.4000 0.0000  plane waves:    5119
 k-point  10 :   0.0000 0.0000 0.4000  plane waves:    5119
 k-point  11 :   0.3333 0.4000 0.0000  plane waves:    5127
 k-point  12 :   0.3333 0.0000 0.4000  plane waves:    5127
 k-point  13 :   0.3333-0.4000 0.0000  plane waves:    5127
 k-point  14 :   0.3333 0.0000-0.4000  plane waves:    5127
 k-point  15 :   0.0000 0.2000 0.2000  plane waves:    5124
 k-point  16 :   0.0000-0.2000 0.2000  plane waves:    5124
 k-point  17 :   0.3333 0.2000 0.2000  plane waves:    5117
 k-point  18 :   0.3333-0.2000 0.2000  plane waves:    5117
 k-point  19 :   0.3333-0.2000-0.2000  plane waves:    5117
 k-point  20 :   0.3333 0.2000-0.2000  plane waves:    5117
 k-point  21 :   0.0000 0.4000 0.2000  plane waves:    5118
 k-point  22 :   0.0000-0.2000 0.4000  plane waves:    5118
 k-point  23 :   0.0000-0.4000 0.2000  plane waves:    5118
 k-point  24 :   0.0000 0.2000 0.4000  plane waves:    5118
 k-point  25 :   0.3333 0.4000 0.2000  plane waves:    5105
 k-point  26 :   0.3333-0.2000 0.4000  plane waves:    5105
 k-point  27 :   0.3333-0.4000-0.2000  plane waves:    5105
 k-point  28 :   0.3333 0.2000-0.4000  plane waves:    5105
 k-point  29 :  -0.3333-0.4000 0.2000  plane waves:    5105
 k-point  30 :  -0.3333 0.2000 0.4000  plane waves:    5105
 k-point  31 :  -0.3333 0.4000-0.2000  plane waves:    5105
 k-point  32 :  -0.3333-0.2000-0.4000  plane waves:    5105
 k-point  33 :   0.0000 0.4000 0.4000  plane waves:    5098
 k-point  34 :   0.0000-0.4000 0.4000  plane waves:    5098
 k-point  35 :   0.3333 0.4000 0.4000  plane waves:    5088
 k-point  36 :   0.3333-0.4000 0.4000  plane waves:    5088
 k-point  37 :   0.3333-0.4000-0.4000  plane waves:    5088
 k-point  38 :   0.3333 0.4000-0.4000  plane waves:    5088

 maximum and minimum number of plane-waves per node :       464      388

 maximum number of plane-waves:      5140
 maximum index in each direction: 
   IXMAX=   17   IYMAX=    8   IZMAX=    8
   IXMIN=  -17   IYMIN=   -8   IZMIN=   -8


 parallel 3D FFT for wavefunctions:
    minimum data exchange during FFTs selected (reduces bandwidth)
 parallel 3D FFT for charge:
    minimum data exchange during FFTs selected (reduces bandwidth)


 total amount of memory used by VASP MPI-rank0    61075. kBytes
=======================================================================

   base      :      30000. kBytes
   nonl-proj :       9945. kBytes
   fftplans  :        778. kBytes
   grid      :       1458. kBytes
   one-center:         46. kBytes
   wavefun   :      18848. kBytes
 
     INWAV:  cpu time      0.0000: real time      0.0001
 Broyden mixing: mesh for mixing (old mesh)
   NGX = 33   NGY = 17   NGZ = 17
  (NGX  =140   NGY  = 72   NGZ  = 72)
  gives a total of   9537 points

 initial charge density was supplied:
 charge density of overlapping atoms calculated
 number of electron     412.0000000 magnetization 
 keeping initial charge density in first step


--------------------------------------------------------------------------------------------------------


 Maximum index for augmentation-charges          517 (set IRDMAX)


--------------------------------------------------------------------------------------------------------


 First call to EWALD:  gamma=   0.214
 Maximum number of real-space cells 2x 3x 3
 Maximum number of reciprocal cells 4x 2x 2

    FEWALD:  cpu time      0.0014: real time      0.0014


--------------------------------------- Iteration      1(   1)  ---------------------------------------


    POTLOK:  cpu time      0.0101: real time      0.0144
    SETDIJ:  cpu time      0.0028: real time      0.0030
     EDDAV:  cpu time      5.9902: real time      6.0141
       DOS:  cpu time      0.0054: real time      0.0055
    --------------------------------------------
      LOOP:  cpu time      6.0086: real time      6.0370

 eigenvalue-minimisations  : 19192
 total energy-change (2. order) : 0.4033412E+04  (-0.1585766E+05)
 number of electron     412.0000000 magnetization 
 augmentation part      412.0000000 magnetization 

 Free energy of the ion-electron system (eV)
  ---------------------------------------------------
  alpha Z        PSCENC =      3869.70746131
  Ewald energy   TEWEN  =    -42234.54261956
  -Hartree energ DENC   =     -7954.11169325
  -exchange      EXHF   =         0.00000000
  -V(xc)+E(xc)   XCENC  =      1529.90448372
  PAW double counting   =     39165.10434039   -38541.58746695
  entropy T*S    EENTRO =        -0.00208295
  eigenvalues    EBANDS =     -1437.45323715
  atomic energy  EATOM  =     49636.39235553
  Solvation  Ediel_sol  =         0.00000000
  ---------------------------------------------------
  free energy    TOTEN  =      4033.41154110 eV

  energy without entropy =     4033.41362404  energy(sigma->0) =     4033.41258257


--------------------------------------------------------------------------------------------------------




--------------------------------------- Iteration      1(   2)  ---------------------------------------


     EDDAV:  cpu time      5.9975: real time      6.0224
       DOS:  cpu time      0.0057: real time      0.0057
    --------------------------------------------
      LOOP:  cpu time      6.0032: real time      6.0281

 eigenvalue-minimisations  : 18976
 total energy-change (2. order) :-0.4053764E+04  (-0.3932204E+04)
 number of electron     412.0000000 magnetization 
 augmentation part      412.0000000 magnetization 

 Free energy of the ion-electron system (eV)
  ---------------------------------------------------
  alpha Z        PSCENC =      3869.70746131
  Ewald energy   TEWEN  =    -42234.54261956
  -Hartree energ DENC   =     -7954.11169325
  -exchange      EXHF   =         0.00000000
  -V(xc)+E(xc)   XCENC  =      1529.90448372
  PAW double counting   =     39165.10434039   -38541.58746695
  entropy T*S    EENTRO =        -0.00390091
  eigenvalues    EBANDS =     -5491.21570306
  atomic energy  EATOM  =     49636.39235553
  Solvation  Ediel_sol  =         0.00000000
  ---------------------------------------------------
  free energy    TOTEN  =       -20.35274278 eV

  energy without entropy =      -20.34884187  energy(sigma->0) =      -20.35079233


--------------------------------------------------------------------------------------------------------




--------------------------------------- Iteration      1(   3)  ---------------------------------------


     EDDAV:  cpu time      7.8329: real time      7.8648
       DOS:  cpu time      0.0057: real time      0.0057
    --------------------------------------------
      LOOP:  cpu time      7.8386: real time      7.8704

 eigenvalue-minimisations  : 26904
 total energy-change (2. order) :-0.3531693E+03  (-0.3313181E+03)
 number of electron     412.0000000 magnetization 
 augmentation part      412.0000000 magnetization 

 Free energy of the ion-electron system (eV)
  ---------------------------------------------------
  alpha Z        PSCENC =      3869.70746131
  Ewald energy   TEWEN  =    -42234.54261956
  -Hartree energ DENC   =     -7954.11169325
  -exchange      EXHF   =         0.00000000
  -V(xc)+E(xc)   XCENC  =      1529.90448372
  PAW double counting   =     39165.10434039   -38541.58746695
  entropy T*S    EENTRO =        -0.00537039
  eigenvalues    EBANDS =     -5844.38350172
  atomic energy  EATOM  =     49636.39235553
  Solvation  Ediel_sol  =         0.00000000
  ---------------------------------------------------
  free energy    TOTEN  =      -373.52201092 eV

  energy without entropy =     -373.51664053  energy(sigma->0) =     -373.51932573


--------------------------------------------------------------------------------------------------------




--------------------------------------- Iteration      1(   4)  ---------------------------------------


     EDDAV:  cpu time      7.5528: real time      7.5827
       DOS:  cpu time      0.0057: real time      0.0057
    --------------------------------------------
      LOOP:  cpu time      7.5585: real time      7.5884

 eigenvalue-minimisations  : 26080
 total energy-change (2. order) :-0.2417806E+02  (-0.2333940E+02)
 number of electron     412.0000000 magnetization 
 augmentation part      412.0000000 magnetization 

 Free energy of the ion-electron system (eV)
  ---------------------------------------------------
  alpha Z        PSCENC =      3869.70746131
  Ewald energy   TEWEN  =    -42234.54261956
  -Hartree energ DENC   =     -7954.11169325
  -exchange      EXHF   =         0.00000000
  -V(xc)+E(xc)   XCENC  =      1529.90448372
  PAW double counting   =     39165.10434039   -38541.58746695
  entropy T*S    EENTRO =        -0.00440335
  eigenvalues    EBANDS =     -5868.56253188
  atomic energy  EATOM  =     49636.39235553
  Solvation  Ediel_sol  =         0.00000000
  ---------------------------------------------------
  free energy    TOTEN  =      -397.70007404 eV

  energy without entropy =     -397.69567069  energy(sigma->0) =     -397.69787237


--------------------------------------------------------------------------------------------------------




--------------------------------------- Iteration      1(   5)  ---------------------------------------


     EDDAV:  cpu time      9.0165: real time      9.0544
       DOS:  cpu time      0.0056: real time      0.0056
    CHARGE:  cpu time      0.1794: real time      0.1802
    MIXING:  cpu time      0.0003: real time      0.0003
    --------------------------------------------
      LOOP:  cpu time      9.2019: real time      9.2405

 eigenvalue-minimisations  : 32560
 total energy-change (2. order) :-0.1566220E+01  (-0.1553556E+01)
 number of electron     411.9999772 magnetization 
 augmentation part       97.9107556 magnetization 

 Broyden mixing:
  rms(total) = 0.81497E+01    rms(broyden)= 0.81486E+01
  rms(prec ) = 0.84040E+01
  weight for this iteration     100.00

 Free energy of the ion-electron system (eV)
  ---------------------------------------------------
  alpha Z        PSCENC =      3869.70746131
  Ewald energy   TEWEN  =    -42234.54261956
  -Hartree energ DENC   =     -7954.11169325
  -exchange      EXHF   =         0.00000000
  -V(xc)+E(xc)   XCENC  =      1529.90448372
  PAW double counting   =     39165.10434039   -38541.58746695
  entropy T*S    EENTRO =        -0.00470350
  eigenvalues    EBANDS =     -5870.12845216
  atomic energy  EATOM  =     49636.39235553
  Solvation  Ediel_sol  =         0.00000000
  ---------------------------------------------------
  free energy    TOTEN  =      -399.26629446 eV

  energy without entropy =     -399.26159097  energy(sigma->0) =     -399.26394271


--------------------------------------------------------------------------------------------------------




--------------------------------------- Iteration      1(   6)  ---------------------------------------


    POTLOK:  cpu time      0.0075: real time      0.0077
    SETDIJ:  cpu time      0.0022: real time      0.0022
     EDDAV:  cpu time      6.9319: real time      6.9596
       DOS:  cpu time      0.0058: real time      0.0058
    CHARGE:  cpu time      0.1793: real time      0.1799
    MIXING:  cpu time      0.0003: real time      0.0003
    --------------------------------------------
      LOOP:  cpu time      7.1270: real time      7.1555

 eigenvalue-minimisations  : 23680
 total energy-change (2. order) : 0.1051397E+02  (-0.5083839E+01)
 number of electron     411.9999763 magnetization 
 augmentation part      101.0504884 magnetization 

 Broyden mixing:
  rms(total) = 0.33319E+01    rms(broyden)= 0.33314E+01
  rms(prec ) = 0.46002E+01
  weight for this iteration     100.00

 eigenvalues of (default mixing * dielectric matrix)
  average eigenvalue GAMMA=   1.5339
  1.5339

 Free energy of the ion-electron system (eV)
  ---------------------------------------------------
  alpha Z        PSCENC =      3869.70746131
  Ewald energy   TEWEN  =    -42234.54261956
  -Hartree energ DENC   =     -7502.47511157
  -exchange      EXHF   =         0.00000000
  -V(xc)+E(xc)   XCENC  =      1508.71710093
  PAW double counting   =     48009.70180222   -47447.43366092
  entropy T*S    EENTRO =        -0.00557033
  eigenvalues    EBANDS =     -6228.81408236
  atomic energy  EATOM  =     49636.39235553
  Solvation  Ediel_sol  =         0.00000000
  ---------------------------------------------------
  free energy    TOTEN  =      -388.75232476 eV

  energy without entropy =     -388.74675443  energy(sigma->0) =     -388.74953960


--------------------------------------------------------------------------------------------------------




--------------------------------------- Iteration      1(   7)  ---------------------------------------


    POTLOK:  cpu time      0.0075: real time      0.0076
    SETDIJ:  cpu time      0.0022: real time      0.0022
     EDDAV:  cpu time      7.4472: real time      7.4758
       DOS:  cpu time      0.0057: real time      0.0057
    CHARGE:  cpu time      0.1789: real time      0.1796
    MIXING:  cpu time      0.0004: real time      0.0004
    --------------------------------------------
      LOOP:  cpu time      7.6420: real time      7.6713

 eigenvalue-minimisations  : 26024
 total energy-change (2. order) :-0.2516548E+02  (-0.1068809E+02)
 number of electron     411.9999766 magnetization 
 augmentation part      101.0718822 magnetization 

 Broyden mixing:
  rms(total) = 0.29809E+01    rms(broyden)= 0.29791E+01
  rms(prec ) = 0.85041E+01
  weight for this iteration     100.00

 eigenvalues of (default mixing * dielectric matrix)
  average eigenvalue GAMMA=   0.9813
  1.6464  0.3162

 Free energy of the ion-electron system (eV)
  ---------------------------------------------------
  alpha Z        PSCENC =      3869.70746131
  Ewald energy   TEWEN  =    -42234.54261956
  -Hartree energ DENC   =     -7428.80042922
  -exchange      EXHF   =         0.00000000
  -V(xc)+E(xc)   XCENC  =      1502.41200513
  PAW double counting   =     52760.43831487   -52218.05221705
  entropy T*S    EENTRO =        -0.00789434
  eigenvalues    EBANDS =     -6301.46478065
  atomic energy  EATOM  =     49636.39235553
  Solvation  Ediel_sol  =         0.00000000
  ---------------------------------------------------
  free energy    TOTEN  =      -413.91780399 eV

  energy without entropy =     -413.90990965  energy(sigma->0) =     -413.91385682


--------------------------------------------------------------------------------------------------------




--------------------------------------- Iteration      1(   8)  ---------------------------------------


    POTLOK:  cpu time      0.0076: real time      0.0077
    SETDIJ:  cpu time      0.0022: real time      0.0022
     EDDAV:  cpu time      7.8637: real time      7.8945
       DOS:  cpu time      0.0055: real time      0.0055
    CHARGE:  cpu time      0.1789: real time      0.1795
    MIXING:  cpu time      0.0003: real time      0.0003
    --------------------------------------------
      LOOP:  cpu time      8.0582: real time      8.0898

 eigenvalue-minimisations  : 27232
 total energy-change (2. order) : 0.3465279E+02  (-0.1010476E+02)
 number of electron     411.9999765 magnetization 
 augmentation part      101.8517332 magnetization 

 Broyden mixing:
  rms(total) = 0.85507E+00    rms(broyden)= 0.85192E+00
  rms(prec ) = 0.13078E+01
  weight for this iteration     100.00

 eigenvalues of (default mixing * dielectric matrix)
  average eigenvalue GAMMA=   0.8998
  1.7525  0.6530  0.2938

 Free energy of the ion-electron system (eV)
  ---------------------------------------------------
  alpha Z        PSCENC =      3869.70746131
  Ewald energy   TEWEN  =    -42234.54261956
  -Hartree energ DENC   =     -7295.27578863
  -exchange      EXHF   =         0.00000000
  -V(xc)+E(xc)   XCENC  =      1497.33109133
  PAW double counting   =     56249.36773723   -55724.75284751
  entropy T*S    EENTRO =        -0.00709208
  eigenvalues    EBANDS =     -6377.48530808
  atomic energy  EATOM  =     49636.39235553
  Solvation  Ediel_sol  =         0.00000000
  ---------------------------------------------------
  free energy    TOTEN  =      -379.26501046 eV

  energy without entropy =     -379.25791838  energy(sigma->0) =     -379.26146442


--------------------------------------------------------------------------------------------------------




--------------------------------------- Iteration      1(   9)  ---------------------------------------


    POTLOK:  cpu time      0.0075: real time      0.0076
    SETDIJ:  cpu time      0.0021: real time      0.0021
     EDDAV:  cpu time      7.3432: real time      7.3744
       DOS:  cpu time      0.0057: real time      0.0058
    CHARGE:  cpu time      0.1787: real time      0.1793
    MIXING:  cpu time      0.0004: real time      0.0004
    --------------------------------------------
      LOOP:  cpu time      7.5377: real time      7.5696

 eigenvalue-minimisations  : 24672
 total energy-change (2. order) :-0.4559570E+00  (-0.2496860E+01)
 number of electron     411.9999765 magnetization 
 augmentation part      102.1838184 magnetization 

 Broyden mixing:
  rms(total) = 0.69732E+00    rms(broyden)= 0.69634E+00
  rms(prec ) = 0.87593E+00
  weight for this iteration     100.00

 eigenvalues of (default mixing * dielectric matrix)
  average eigenvalue GAMMA=   0.7809
  1.7151  0.8521  0.3280  0.2283

 Free energy of the ion-electron system (eV)
  ---------------------------------------------------
  alpha Z        PSCENC =      3869.70746131
  Ewald energy   TEWEN  =    -42234.54261956
  -Hartree energ DENC   =     -7262.87611554
  -exchange      EXHF   =         0.00000000
  -V(xc)+E(xc)   XCENC  =      1496.05972098
  PAW double counting   =     57180.97922678   -56661.48656349
  entropy T*S    EENTRO =        -0.00640669
  eigenvalues    EBANDS =     -6403.94802677
  atomic energy  EATOM  =     49636.39235553
  Solvation  Ediel_sol  =         0.00000000
  ---------------------------------------------------
  free energy    TOTEN  =      -379.72096746 eV

  energy without entropy =     -379.71456077  energy(sigma->0) =     -379.71776411


--------------------------------------------------------------------------------------------------------




--------------------------------------- Iteration      1(  10)  ---------------------------------------


    POTLOK:  cpu time      0.0076: real time      0.0077
    SETDIJ:  cpu time      0.0021: real time      0.0021
     EDDAV:  cpu time      7.1316: real time      7.1595
       DOS:  cpu time      0.0057: real time      0.0057
    CHARGE:  cpu time      0.1784: real time      0.1791
    MIXING:  cpu time      0.0005: real time      0.0005
    --------------------------------------------
      LOOP:  cpu time      7.3259: real time      7.3547

 eigenvalue-minimisations  : 24576
 total energy-change (2. order) : 0.1555069E+00  (-0.2754193E+00)
 number of electron     411.9999767 magnetization 
 augmentation part      102.0970036 magnetization 

 Broyden mixing:
  rms(total) = 0.55781E+00    rms(broyden)= 0.55759E+00
  rms(prec ) = 0.59074E+00
  weight for this iteration     100.00

 eigenvalues of (default mixing * dielectric matrix)
  average eigenvalue GAMMA=   0.8122
  1.5611  1.3230  0.2899  0.4436  0.4436

 Free energy of the ion-electron system (eV)
  ---------------------------------------------------
  alpha Z        PSCENC =      3869.70746131
  Ewald energy   TEWEN  =    -42234.54261956
  -Hartree energ DENC   =     -7266.60708633
  -exchange      EXHF   =         0.00000000
  -V(xc)+E(xc)   XCENC  =      1496.27133561
  PAW double counting   =     57278.08519052   -56758.00338580
  entropy T*S    EENTRO =        -0.00618173
  eigenvalues    EBANDS =     -6400.86253008
  atomic energy  EATOM  =     49636.39235553
  Solvation  Ediel_sol  =         0.00000000
  ---------------------------------------------------
  free energy    TOTEN  =      -379.56546053 eV

  energy without entropy =     -379.55927880  energy(sigma->0) =     -379.56236967


--------------------------------------------------------------------------------------------------------




--------------------------------------- Iteration      1(  11)  ---------------------------------------


    POTLOK:  cpu time      0.0075: real time      0.0076
    SETDIJ:  cpu time      0.0022: real time      0.0022
     EDDAV:  cpu time      6.9661: real time      6.9934
       DOS:  cpu time      0.0057: real time      0.0058
    CHARGE:  cpu time      0.1782: real time      0.1788
    MIXING:  cpu time      0.0004: real time      0.0004
    --------------------------------------------
      LOOP:  cpu time      7.1602: real time      7.1883

 eigenvalue-minimisations  : 23704
 total energy-change (2. order) : 0.4344132E-02  (-0.4960226E-01)
 number of electron     411.9999768 magnetization 
 augmentation part      102.0075715 magnetization 

 Broyden mixing:
  rms(total) = 0.36837E+00    rms(broyden)= 0.36832E+00
  rms(prec ) = 0.46474E+00
  weight for this iteration     100.00

 eigenvalues of (default mixing * dielectric matrix)
  average eigenvalue GAMMA=   1.0049
  2.3278  1.8950  0.6730  0.5202  0.2775  0.3358

 Free energy of the ion-electron system (eV)
  ---------------------------------------------------
  alpha Z        PSCENC =      3869.70746131
  Ewald energy   TEWEN  =    -42234.54261956
  -Hartree energ DENC   =     -7274.88012232
  -exchange      EXHF   =         0.00000000
  -V(xc)+E(xc)   XCENC  =      1496.66552365
  PAW double counting   =     57315.51510829   -56793.61378550
  entropy T*S    EENTRO =        -0.00646048
  eigenvalues    EBANDS =     -6394.79857732
  atomic energy  EATOM  =     49636.39235553
  Solvation  Ediel_sol  =         0.00000000
  ---------------------------------------------------
  free energy    TOTEN  =      -379.56111640 eV

  energy without entropy =     -379.55465592  energy(sigma->0) =     -379.55788616


--------------------------------------------------------------------------------------------------------




--------------------------------------- Iteration      1(  12)  ---------------------------------------


    POTLOK:  cpu time      0.0075: real time      0.0077
    SETDIJ:  cpu time      0.0022: real time      0.0022
     EDDAV:  cpu time      7.0232: real time      7.0518
       DOS:  cpu time      0.0058: real time      0.0058
    CHARGE:  cpu time      0.1787: real time      0.1794
    MIXING:  cpu time      0.0004: real time      0.0004
    --------------------------------------------
      LOOP:  cpu time      7.2178: real time      7.2473

 eigenvalue-minimisations  : 23864
 total energy-change (2. order) :-0.4082809E-01  (-0.4637053E-01)
 number of electron     411.9999768 magnetization 
[...]
    123       3.6420      2.00000
    124       3.6906      2.00000
    125       3.8771      2.00000
    126       4.1555      2.00000
    127       4.3181      2.00000
    128       4.5367      2.00000
    129       4.6604      2.00000
    130       4.7803      2.00000
    131       5.0146      2.00000
    132       5.0513      2.00000
    133       5.2913      2.00000
    134       5.3551      2.00000
    135       5.3872      2.00000
    136       5.4156      2.00000
    137       5.4943      2.00000
    138       5.5629      2.00000
    139       5.6275      2.00000
    140       5.6544      2.00000
    141       5.6881      2.00000
    142       5.7276      2.00000
    143       5.7659      2.00000
    144       5.7930      2.00000
    145       5.8135      2.00000
    146       5.8583      2.00000
    147       5.8773      2.00000
    148       5.9638      2.00000
    149       6.0461      2.00000
    150       6.0704      2.00000
    151       6.1065      2.00000
    152       6.2035      2.00000
    153       6.2233      2.00000
    154       6.2379      2.00000
    155       6.3415      2.00000
    156       6.4177      2.00000
    157       6.4614      2.00000
    158       6.5634      2.00000
    159       6.5872      2.00000
    160       6.6249      2.00000
    161       6.6778      2.00000
    162       6.6932      2.00000
    163       6.7064      2.00000
    164       6.7338      2.00000
    165       6.7600      2.00000
    166       6.8400      2.00000
    167       6.8626      2.00000
    168       6.9129      2.00000
    169       6.9430      2.00000
    170       6.9720      2.00000
    171       6.9945      2.00000
    172       7.0384      2.00000
    173       7.0569      2.00000
    174       7.0687      2.00000
    175       7.1082      2.00000
    176       7.1374      2.00000
    177       7.1616      2.00000
    178       7.1898      2.00000
    179       7.2090      2.00000
    180       7.2188      2.00000
    181       7.2412      2.00000
    182       7.2725      2.00000
    183       7.2930      2.00000
    184       7.3107      2.00000
    185       7.3339      2.00000
    186       7.3473      2.00000
    187       7.3847      2.00000
    188       7.4134      2.00000
    189       7.4398      2.00000
    190       7.4673      2.00000
    191       7.5275      2.00000
    192       7.5373      2.00000
    193       7.5560      2.00000
    194       7.5799      2.00000
    195       7.6211      2.00000
    196       7.6560      2.00000
    197       7.6956      2.00000
    198       7.7325      2.00000
    199       7.7593      2.00000
    200       7.7758      2.00000
    201       7.8014      2.00000
    202       7.8547      2.00000
    203       7.8693      2.00000
    204       7.8739      2.00000
    205       7.9116      2.00000
    206       7.9447      2.00000
    207       7.9775      2.00000
    208       8.0106      2.00000
    209       8.0520      2.00000
    210       8.1381      2.00000
    211       8.3426      2.00000
    212       8.5296      2.00000
    213       8.5463      2.00000
    214       9.2329      0.00000
    215      10.1460      0.00000
    216      10.4088      0.00000
    217      10.4378      0.00000
    218      10.4720      0.00000
    219      10.5467      0.00000
    220      10.5673      0.00000
    221      10.6133      0.00000
    222      10.6568      0.00000
    223      10.7819      0.00000
    224      10.8382      0.00000
    225      10.8619      0.00000
    226      10.9228      0.00000
    227      10.9489      0.00000
    228      10.9725      0.00000
    229      11.0011      0.00000
    230      11.0193      0.00000
    231      11.0588      0.00000
    232      11.1490      0.00000
    233      11.1716      0.00000
    234      11.2072      0.00000
    235      11.2373      0.00000
    236      11.2664      0.00000
    237      11.2818      0.00000
    238      11.3063      0.00000
    239      11.3600      0.00000
    240      11.3979      0.00000
    241      11.4362      0.00000
    242      11.4653      0.00000
    243      11.4898      0.00000
    244      11.5237      0.00000
    245      11.5440      0.00000
    246      11.6473      0.00000
    247      11.6848      0.00000
    248      11.7613      0.00000


--------------------------------------------------------------------------------------------------------


 soft charge-density along one line, spin component           1
         0         1         2         3         4         5         6         7         8         9
 total charge-density along one line
 
 pseudopotential strength for first ion, spin component:           1
  5.825 -20.590  -0.001   0.001  -0.001   0.001  -0.002   0.001
-20.590   9.477  -0.001   0.001  -0.001   0.000  -0.000   0.000
 -0.001  -0.001  -9.936  -0.002   0.001   6.225   0.002  -0.001
  0.001   0.001  -0.002  -9.939   0.004   0.002   6.229  -0.004
 -0.001  -0.001   0.001   0.004  -9.938  -0.001  -0.004   6.228
  0.001   0.000   6.225   0.002  -0.001   7.798  -0.001   0.001
 -0.002  -0.000   0.002   6.229  -0.004  -0.001   7.797   0.003
  0.001   0.000  -0.001  -0.004   6.228   0.001   0.003   7.797
  0.001   0.000  -0.000  -0.000  -0.000   0.000  -0.000   0.001
 -0.001  -0.001   0.001  -0.001  -0.000  -0.001   0.001  -0.000
 -0.001  -0.000   0.000   0.001   0.000  -0.000  -0.001  -0.000
  0.003   0.001  -0.000  -0.000   0.001  -0.000   0.000  -0.001
 -0.001  -0.000   0.001  -0.000  -0.001  -0.001   0.000   0.000
  0.001   0.000  -0.000  -0.000  -0.001   0.000  -0.000   0.001
 -0.002  -0.001   0.001  -0.001  -0.000  -0.002   0.001  -0.000
 -0.001  -0.000   0.000   0.001   0.000  -0.000  -0.001  -0.000
  0.004   0.002  -0.000  -0.000   0.001  -0.000   0.000  -0.002
 -0.001  -0.000   0.001  -0.000  -0.001  -0.001   0.000   0.000
 total augmentation occupancy for first ion, spin component:           1
  1.995  -0.047   0.000   0.000  -0.000   0.000  -0.000  -0.000   0.004  -0.005  -0.001   0.012  -0.001  -0.003   0.004   0.001
 -0.047   1.308   0.002  -0.001  -0.001  -0.000  -0.001   0.005   0.005  -0.003  -0.022   0.043  -0.017   0.002  -0.002   0.008
  0.000   0.002   1.996   0.000  -0.000  -0.030  -0.001   0.001   0.000  -0.003  -0.001  -0.005   0.000  -0.000   0.002   0.000
  0.000  -0.001   0.000   1.996  -0.000  -0.001  -0.029   0.002  -0.005   0.005   0.002   0.000  -0.000   0.003  -0.003  -0.001
 -0.000  -0.001  -0.000  -0.000   1.996   0.001   0.002  -0.030   0.006  -0.005   0.001  -0.003  -0.002  -0.003   0.003  -0.000
  0.000  -0.000  -0.030  -0.001   0.001   0.070   0.001  -0.001  -0.001   0.001  -0.001   0.010  -0.003   0.002  -0.001   0.000
 -0.000  -0.001  -0.001  -0.029   0.002   0.001   0.067  -0.002   0.010  -0.008  -0.006  -0.001   0.001  -0.006   0.006   0.002
 -0.000   0.005   0.001   0.002  -0.030  -0.001  -0.002   0.069  -0.010   0.011  -0.004   0.002   0.007   0.006  -0.006   0.001
  0.004   0.005   0.000  -0.005   0.006  -0.001   0.010  -0.010   3.431   0.061  -0.035  -0.004   0.001  -1.460  -0.022   0.015
 -0.005  -0.003  -0.003   0.005  -0.005   0.001  -0.008   0.011   0.061   3.448  -0.017  -0.020   0.031  -0.022  -1.465   0.008
 -0.001  -0.022  -0.001   0.002   0.001  -0.001  -0.006  -0.004  -0.035  -0.017   2.679   0.046   0.013   0.015   0.007  -1.226
  0.012   0.043  -0.005   0.000  -0.003   0.010  -0.001   0.002  -0.004  -0.020   0.046   3.442   0.087  -0.006   0.015  -0.019
 -0.001  -0.017   0.000  -0.000  -0.002  -0.003   0.001   0.007   0.001   0.031   0.013   0.087   2.723  -0.001  -0.013  -0.004
 -0.003   0.002  -0.000   0.003  -0.003   0.002  -0.006   0.006  -1.460  -0.022   0.015  -0.006  -0.001   0.633   0.009  -0.007
  0.004  -0.002   0.002  -0.003   0.003  -0.001   0.006  -0.006  -0.022  -1.465   0.007   0.015  -0.013   0.009   0.635  -0.003
  0.001   0.008   0.000  -0.001  -0.000   0.000   0.002   0.001   0.015   0.008  -1.226  -0.019  -0.004  -0.007  -0.003   0.569
 -0.010  -0.019   0.003  -0.000   0.002  -0.006   0.002  -0.002  -0.006   0.016  -0.018  -1.461  -0.037   0.005  -0.009   0.008
  0.001   0.006   0.000   0.000   0.001   0.001  -0.000  -0.002  -0.001  -0.014  -0.004  -0.038  -1.243   0.000   0.006   0.001


------------------------ aborting loop because EDIFF is reached ----------------------------------------


    CHARGE:  cpu time      0.1821: real time      0.1830
    FORLOC:  cpu time      0.0014: real time      0.0014
    FORNL :  cpu time      3.7106: real time      3.7281
    STRESS:  cpu time      4.2420: real time      4.2732
    FORCOR:  cpu time      0.0110: real time      0.0111
    FORHAR:  cpu time      0.0030: real time      0.0030
    MIXING:  cpu time      0.0010: real time      0.0010
    OFIELD:  cpu time      0.0000: real time      0.0000

  FORCE on cell =-STRESS in cart. coord.  units (eV):
  Direction    XX          YY          ZZ          XY          YZ          ZX
  --------------------------------------------------------------------------------------
  Alpha Z  3869.70746  3869.70746  3869.70746
  Ewald  -14346.78907-13905.89525-13982.08042    -5.58687    11.90663    22.34750
  Hartree  2162.65415  2596.18355  2521.03389    -5.28130    11.25424    22.32569
  E(xc)   -1882.51915 -1882.57082 -1882.53234     0.00697    -0.02649    -0.03176
  Local    3692.23624  2817.50992  2968.62018    10.64795   -22.64962   -44.94815
  n-local  -686.69067  -684.76983  -685.98422     0.07452     0.22701     0.04067
  augment  1254.72715  1254.57169  1254.61205    -0.00695    -0.07772     0.05374
  Kinetic  5890.05542  5888.30790  5889.34166     0.10191    -0.42978     0.42000
  Fock        0.00000     0.00000     0.00000     0.00000     0.00000     0.00000
  -------------------------------------------------------------------------------------
  Total     -46.61846   -46.95539   -47.28175    -0.04378     0.20426     0.20769
  in kB    -131.08737  -132.03477  -132.95247    -0.12309     0.57437     0.58399
  external pressure =     -132.02 kB  Pullay stress =        0.00 kB


 VOLUME and BASIS-vectors are now :
 -----------------------------------------------------------------------------
  energy-cutoff  :      250.00
  volume of cell :      569.78
      direct lattice vectors                 reciprocal lattice vectors
    13.160000000  0.000000000  0.000000000     0.075987842  0.000000000  0.000000000
     0.000000000  6.580000000  0.000000000     0.000000000  0.151975684  0.000000000
     0.000000000  0.000000000  6.580000000     0.000000000  0.000000000  0.151975684

  length of vectors
    13.160000000  6.580000000  6.580000000     0.075987842  0.151975684  0.151975684


 FORCES acting on ions
    electron-ion (+dipol)            ewald-force                    non-local-force                 convergence-correction
 -----------------------------------------------------------------------------------------------
   -.139E+03 -.946E+01 0.736E+01   0.139E+03 0.918E+01 -.715E+01   -.205E+00 0.137E+00 -.625E-01   0.224E-03 0.323E-03 -.170E-03
   -.139E+03 0.947E+01 -.735E+01   0.139E+03 -.918E+01 0.715E+01   -.188E+00 -.153E+00 0.469E-01   0.238E-03 -.312E-03 0.183E-03
   0.139E+03 -.937E+01 -.482E+02   -.139E+03 0.918E+01 0.479E+02   -.163E+00 0.369E-01 -.331E-01   -.899E-04 -.166E-03 -.374E-04
   0.207E+03 0.413E+02 -.413E+02   -.206E+03 -.408E+02 0.408E+02   0.245E-01 -.142E+00 0.337E-01   0.335E-03 -.255E-03 -.230E-03
   -.137E+03 -.278E+02 0.258E+02   0.136E+03 0.275E+02 -.255E+02   0.122E+00 -.798E-02 -.206E-01   -.456E-03 -.873E-04 0.283E-04
   -.210E+02 -.597E+02 -.597E+02   0.205E+02 0.592E+02 0.592E+02   0.228E+00 0.106E+00 0.831E-01   0.279E-03 0.179E-03 0.284E-04
   0.129E+03 0.100E+02 0.518E+02   -.128E+03 -.989E+01 -.516E+02   -.432E-01 0.225E-01 0.596E-01   -.112E-03 0.183E-03 0.506E-04
   -.210E+03 -.443E+02 0.443E+02   0.210E+03 0.439E+02 -.439E+02   -.339E+00 0.535E-01 -.343E-01   0.761E-04 0.865E-04 0.646E-04
   0.150E+03 -.100E+02 0.517E+02   -.150E+03 0.989E+01 -.516E+02   0.246E+00 -.359E-02 0.787E-01   -.101E-03 -.173E-03 0.331E-04
   0.237E+03 -.442E+02 -.441E+02   -.237E+03 0.439E+02 0.439E+02   0.562E+00 -.400E-01 -.135E+00   0.167E-03 0.286E-03 -.233E-03
   -.588E+02 -.505E+02 0.505E+02   0.592E+02 0.501E+02 -.501E+02   -.219E+00 -.205E-01 0.217E-01   0.127E-03 0.154E-03 -.544E-05
   0.772E+01 0.195E+02 0.195E+02   -.766E+01 -.190E+02 -.190E+02   -.514E-04 -.789E-01 -.273E-01   -.482E-03 -.203E-03 0.204E-03
   0.200E+03 -.351E+02 0.351E+02   -.199E+03 0.345E+02 -.345E+02   0.296E+00 0.116E+00 -.263E-01   0.291E-03 0.222E-03 0.187E-03
   -.423E+02 0.505E+02 0.506E+02   0.422E+02 -.501E+02 -.501E+02   -.539E-01 -.230E-01 -.391E-01   0.112E-03 -.149E-03 0.212E-04
   0.107E+03 -.236E+02 -.563E+02   -.107E+03 0.233E+02 0.561E+02   0.409E+00 0.130E-01 -.925E-01   0.167E-03 0.329E-03 -.251E-03
   -.152E+03 -.350E+02 -.350E+02   0.152E+03 0.345E+02 0.345E+02   -.348E+00 0.204E-01 0.388E-01   0.140E-03 0.569E-04 -.777E-04
   0.107E+03 0.236E+02 0.564E+02   -.107E+03 -.233E+02 -.561E+02   0.336E+00 -.259E-01 0.889E-01   0.291E-03 -.322E-03 0.238E-03
   0.116E+03 0.236E+02 -.563E+02   -.115E+03 -.233E+02 0.561E+02   0.157E-02 -.236E-01 -.133E+00   0.193E-03 -.343E-03 -.225E-03
   -.140E+03 0.350E+02 -.350E+02   0.140E+03 -.345E+02 0.345E+02   0.556E-01 -.462E-01 0.778E-01   0.174E-04 -.619E-04 -.759E-04
   -.118E+03 0.805E+01 0.626E+01   0.117E+03 -.777E+01 -.605E+01   0.105E+00 -.733E-01 0.384E-01   0.242E-03 -.260E-03 -.147E-03
   -.126E+03 0.298E+02 -.276E+02   0.126E+03 -.297E+02 0.275E+02   -.104E+00 0.528E-01 -.405E-01   -.353E-03 0.114E-03 -.125E-04
   0.126E+03 -.299E+02 0.715E+02   -.126E+03 0.297E+02 -.714E+02   0.588E-01 -.364E-01 0.811E-01   0.237E-03 0.402E-03 0.329E-03
   -.216E+02 -.245E+02 -.245E+02   0.219E+02 0.242E+02 0.242E+02   -.208E+00 -.390E-01 -.683E-01   -.768E-03 0.218E-03 -.298E-03
   -.129E+03 -.101E+02 -.779E+01   0.128E+03 0.989E+01 0.770E+01   -.610E-01 -.382E-01 -.119E+00   0.248E-03 0.309E-03 0.170E-03
   -.183E+03 0.443E+02 0.443E+02   0.183E+03 -.439E+02 -.439E+02   -.961E-01 0.789E-01 0.840E-01   0.650E-05 -.566E-04 0.950E-04
   -.226E+02 0.640E+02 -.640E+02   0.226E+02 -.637E+02 0.637E+02   0.337E-02 0.106E+00 -.785E-01   0.204E-03 -.196E-03 0.681E-05
   -.136E+03 0.298E+02 0.276E+02   0.136E+03 -.297E+02 -.275E+02   -.486E+00 0.522E-01 0.840E-01   -.369E-03 0.114E-03 0.337E-04
   0.227E+03 0.442E+02 0.442E+02   -.227E+03 -.439E+02 -.439E+02   0.130E+00 0.111E+00 0.149E+00   0.480E-03 -.237E-03 0.319E-03
   -.136E+03 -.298E+02 -.276E+02   0.136E+03 0.297E+02 0.275E+02   -.402E+00 -.531E-01 -.101E+00   -.519E-03 -.951E-04 -.120E-04
   0.150E+03 0.100E+02 -.518E+02   -.150E+03 -.989E+01 0.516E+02   0.349E+00 0.433E-01 -.331E-01   -.101E-03 0.198E-03 -.568E-04
   0.312E+02 -.244E+02 0.244E+02   -.314E+02 0.242E+02 -.242E+02   0.127E+00 -.131E+00 0.125E+00   -.661E-03 0.207E-03 0.302E-03
   -.213E+02 0.244E+02 -.244E+02   0.213E+02 -.242E+02 0.242E+02   -.600E-01 0.104E+00 -.140E+00   -.704E-03 -.216E-03 -.322E-03
 -----------------------------------------------------------------------------------------------
   -.789E-01 -.119E+00 0.931E-01   -.341E-12 -.256E-12 0.853E-13   0.797E-01 0.118E+00 -.933E-01   -.639E-03 0.249E-03 0.138E-03
 
 
 POSITION                                       TOTAL-FORCE (eV/Angst)
 -----------------------------------------------------------------------------------
     11.51500      4.93500      4.93500        -0.116920     -0.140610      0.142243
     11.51500      1.64500      1.64500        -0.132481      0.131968     -0.150626
      4.93500      1.64500      4.93500         0.095844     -0.155996     -0.322573
      3.29000      3.29000      3.29000         0.581168      0.373550     -0.462803
      8.22500      1.64500      4.93500        -0.139685     -0.231856      0.227665
      0.00000      0.00000      3.29000        -0.236922     -0.415485     -0.413426
      4.93500      4.93500      1.64500         0.343132      0.140394      0.200595
      9.87000      0.00000      0.00000        -0.407057     -0.304011      0.320772
      4.93500      1.64500      1.64500         0.155200     -0.115278      0.176888
      3.29000      0.00000      3.29000         0.560672     -0.355358     -0.315673
      0.00000      0.00000      0.00000         0.127740     -0.506498      0.511503
      6.58000      3.29000      0.00000         0.065487      0.409875      0.494384
      3.29000      0.00000      0.00000         0.620078     -0.442047      0.523258
      0.00000      3.29000      0.00000        -0.164611      0.469766      0.468171
      1.64500      4.93500      4.93500         0.334768     -0.232873     -0.331879
      9.87000      0.00000      3.29000        -0.665908     -0.498697     -0.491278
      1.64500      1.64500      1.64500         0.256543      0.223811      0.344842
      1.64500      1.64500      4.93500         0.205178      0.223424     -0.287568
      9.87000      3.29000      3.29000        -0.462065      0.462790     -0.443767
     11.51500      1.64500      4.93500        -0.174333      0.210369      0.244229
      8.22500      4.93500      1.64500        -0.347810      0.208922     -0.179170
      1.64500      4.93500      1.64500         0.293896     -0.230404      0.169249
      6.58000      0.00000      3.29000         0.087461     -0.390862     -0.393443
     11.51500      4.93500      1.64500        -0.358497     -0.235006     -0.207754
      9.87000      3.29000      0.00000        -0.397805      0.408396      0.409569
      0.00000      3.29000      3.29000        -0.002327      0.417339     -0.377363
      8.22500      4.93500      4.93500        -0.299646      0.190268      0.209439
      3.29000      3.29000      0.00000         0.360394      0.410619      0.373165
      8.22500      1.64500      1.64500        -0.232858     -0.173443     -0.239946
      4.93500      4.93500      4.93500         0.179183      0.168644     -0.188834
      6.58000      0.00000      0.00000        -0.087522     -0.417002      0.372222
      6.58000      3.29000      3.29000        -0.040296      0.395292     -0.382091
 -----------------------------------------------------------------------------------
    total drift:                                0.000138      0.000025      0.000015


--------------------------------------------------------------------------------------------------------



  FREE ENERGIE OF THE ION-ELECTRON SYSTEM (eV)
  ---------------------------------------------------
  free  energy   TOTEN  =      -379.51294658 eV

  energy  without entropy=     -379.50630875  energy(sigma->0) =     -379.50962767
 


--------------------------------------------------------------------------------------------------------


    POTLOK:  cpu time      0.0096: real time      0.0097


--------------------------------------------------------------------------------------------------------


     LOOP+:  cpu time    197.7034: real time    198.7793
    4ORBIT:  cpu time      0.0000: real time      0.0000

 total amount of memory used by VASP MPI-rank0    61075. kBytes
=======================================================================

   base      :      30000. kBytes
   nonl-proj :       9945. kBytes
   fftplans  :        778. kBytes
   grid      :       1458. kBytes
   one-center:         46. kBytes
   wavefun   :      18848. kBytes
 
  
  
 General timing and accounting informations for this job:
 ========================================================
  
                  Total CPU time used (sec):      204.290
                            User time (sec):      202.573
                          System time (sec):        1.717
                         Elapsed time (sec):      206.391
  
                   Maximum memory used (kb):      105664.
                   Average memory used (kb):          N/A
  
                          Minor page faults:         9153
                          Major page faults:            0
                 Voluntary context switches:          208
