 vasp.6.3.1 04May22 (build Jul 26 2022 04:02:40) complex                        
  
 executed on             LinuxIFC date 2023.11.30  04:13:38
 running on   48 total cores
 distrk:  each k-point on   48 cores,    1 groups
 distr:  one band on NCORE=  12 cores,    4 groups


--------------------------------------------------------------------------------------------------------


 INCAR:
   ISTART = 0
   NWRITE = 2
   PREC = Accurate
   ENCUT = 250
   GGA = PE
   NSW = 0
   ISIF = 2
   ISYM = 2
   NBLOCK = 1
   KBLOCK = 1
   IBRION = -1
   NELM = 80
   EDIFF = 1E-08
   EDIFFG = -0.01
   ALGO = Normal
   LDIAG = .TRUE.
   LREAL = .FALSE.
   ISMEAR = 0
   SIGMA = 0.02
   ICHARG = 2
   LPLANE = .TRUE.
   NPAR = 4
   LSCALU = .FALSE.
   NSIM = 4
   LWAVE = .FALSE.
   LCHARG = .FALSE.
   ICORELEVEL = 1

 POTCAR:    PAW_PBE Nb_sv 25May2007               
 POTCAR:    PAW_PBE Mo_sv 02Feb2006               
 POTCAR:    PAW_PBE Ta_pv 07Sep2000               
 POTCAR:    PAW_PBE W_sv 04Sep2015                
 POTCAR:    PAW_PBE Nb_sv 25May2007               
   SHA256 =  0e8fc07c9fcd1164cf2ade22d0399fd28f85e91cd773dfa6cf24839a48c95e24 Nb_sv/POTCAR          
   COPYR  = (c) Copyright 25May2007 Georg Kresse                                                    
   COPYR  = This file is part of the software VASP. Any use, copying, and all other rights are regul
   COPYR  = If you do not have a valid VASP license, you may not use, copy or distribute this file. 
   VRHFIN =Nb: 4p5s4d                                                                               
   LEXCH  = PE                                                                                      
   EATOM  =  1555.1913 eV,  114.3033 Ry                                                             
                                                                                                    
   TITEL  = PAW_PBE Nb_sv 25May2007                                                                 
   LULTRA =        F    use ultrasoft PP ?                                                          
   IUNSCR =        1    unscreen: 0-lin 1-nonlin 2-no                                               
   RPACOR =    1.800    partial core radius                                                         
   POMASS =   92.910; ZVAL   =   13.000    mass and valenz                                          
   RCORE  =    2.400    outmost cutoff radius                                                       
   RWIGS  =    2.400; RWIGS  =    1.270    wigner-seitz radius (au A)                               
   ENMAX  =  293.235; ENMIN  =  219.927 eV                                                          
   ICORE  =        3    local potential                                                             
   LCOR   =        T    correct aug charges                                                         
   LPAW   =        T    paw PP                                                                      
   EAUG   =  455.659                                                                                
   DEXC   =    0.000                                                                                
   RMAX   =    2.456    core radius for proj-oper                                                   
   RAUG   =    1.300    factor for augmentation sphere                                              
   RDEP   =    2.451    radius for radial grids                                                     
   RDEPT  =    1.956    core radius for aug-charge                                                  
                                                                                                    
   Atomic configuration                                                                             
   11 entries                                                                                       
     n  l   j            E        occ.                                                              
     1  0  0.50    -18805.2457   2.0000                                                             
     2  0  0.50     -2630.2869   2.0000                                                             
     2  1  1.50     -2348.4046   6.0000                                                             
     3  0  0.50      -438.8757   2.0000                                                             
     3  1  1.50      -346.7588   6.0000                                                             
     3  2  2.50      -196.2560  10.0000                                                             
     4  0  0.50       -58.3859   2.0000                                                             
     5  0  0.50        -3.9816   1.0000                                                             
     4  1  1.50       -34.5141   6.0000                                                             
     4  2  2.50        -3.0408   4.0000                                                             
     4  3  2.50        -1.3606   0.0000                                                             
   Description                                                                                      
     l       E           TYP  RCUT    TYP  RCUT                                                     
     0    -58.3859094     23  2.200                                                                 
     0     -3.9816262     23  2.200                                                                 
     1    -34.5140738     23  2.200                                                                 
     1     13.6058260     23  2.200                                                                 
     2     -3.0408010     23  2.200                                                                 
     2     -0.1283038     23  2.200                                                                 
     3     -1.3605826     23  2.400                                                                 
  local pseudopotential read in
  partial core-charges read in
  partial kinetic energy density read in
  atomic valenz-charges read in
  non local Contribution for L=           0  read in
    real space projection operators read in
  non local Contribution for L=           0  read in
    real space projection operators read in
  non local Contribution for L=           1  read in
    real space projection operators read in
  non local Contribution for L=           1  read in
    real space projection operators read in
  non local Contribution for L=           2  read in
    real space projection operators read in
  non local Contribution for L=           2  read in
    real space projection operators read in
    PAW grid and wavefunctions read in
 
   number of l-projection  operators is LMAX  =           6
   number of lm-projection operators is LMMAX =          18
 
 POTCAR:    PAW_PBE Mo_sv 02Feb2006               
   SHA256 =  2731df97e41766cc617548c5a8267718fdef1f509ac6bafa01e745abea2bdfaa Mo_sv/POTCAR          
   COPYR  = (c) Copyright 02Feb2006 Georg Kresse                                                    
   COPYR  = This file is part of the software VASP. Any use, copying, and all other rights are regul
   COPYR  = If you do not have a valid VASP license, you may not use, copy or distribute this file. 
   VRHFIN =Mo: 4p5s4d                                                                               
   LEXCH  = PE                                                                                      
   EATOM  =  1862.2866 eV,  136.8742 Ry                                                             
                                                                                                    
   TITEL  = PAW_PBE Mo_sv 02Feb2006                                                                 
   LULTRA =        F    use ultrasoft PP ?                                                          
   IUNSCR =        1    unscreen: 0-lin 1-nonlin 2-no                                               
   RPACOR =    2.200    partial core radius                                                         
   POMASS =   95.940; ZVAL   =   14.000    mass and valenz                                          
   RCORE  =    2.500    outmost cutoff radius                                                       
   RWIGS  =    2.750; RWIGS  =    1.455    wigner-seitz radius (au A)                               
   ENMAX  =  242.676; ENMIN  =  182.007 eV                                                          
   ICORE  =        3    local potential                                                             
   LCOR   =        T    correct aug charges                                                         
   LPAW   =        T    paw PP                                                                      
   EAUG   =  446.014                                                                                
   DEXC   =    0.000                                                                                
   RMAX   =    2.563    core radius for proj-oper                                                   
   RAUG   =    1.300    factor for augmentation sphere                                              
   RDEP   =    2.641    radius for radial grids                                                     
   RDEPT  =    2.031    core radius for aug-charge                                                  
                                                                                                    
   Atomic configuration                                                                             
   11 entries                                                                                       
     n  l   j            E        occ.                                                              
     1  0  0.50    -19819.0341   2.0000                                                             
     2  0  0.50     -2799.0127   2.0000                                                             
     2  1  1.50     -2502.0276   6.0000                                                             
     3  0  0.50      -476.4449   2.0000                                                             
     3  1  1.50      -379.1496   6.0000                                                             
     3  2  2.50      -220.9367  10.0000                                                             
     4  0  0.50       -64.3378   2.0000                                                             
     5  0  0.50        -4.0862   1.0000                                                             
     4  1  1.50       -38.4773   6.0000                                                             
     4  2  2.50        -3.7535   5.0000                                                             
     4  3  2.50        -1.3606   0.0000                                                             
   Description                                                                                      
     l       E           TYP  RCUT    TYP  RCUT                                                     
     0    -64.3377829     23  2.100                                                                 
     0     -4.0861640     23  2.400                                                                 
     1    -38.4772993     23  2.100                                                                 
     1     13.6058260     23  2.100                                                                 
     2     -3.7534941     23  2.400                                                                 
     2     -5.1140767     23  2.400                                                                 
     3     -4.0817478     23  2.500                                                                 
  local pseudopotential read in
  partial core-charges read in
  partial kinetic energy density read in
  atomic valenz-charges read in
  non local Contribution for L=           0  read in
    real space projection operators read in
  non local Contribution for L=           0  read in
    real space projection operators read in
  non local Contribution for L=           1  read in
    real space projection operators read in
  non local Contribution for L=           1  read in
    real space projection operators read in
  non local Contribution for L=           2  read in
    real space projection operators read in
  non local Contribution for L=           2  read in
    real space projection operators read in
    PAW grid and wavefunctions read in
 
   number of l-projection  operators is LMAX  =           6
   number of lm-projection operators is LMMAX =          18
 
 POTCAR:    PAW_PBE Ta_pv 07Sep2000               
   SHA256 =  00d0a14a36c127416459414afb8617d9754996fffa60a2465888e660b20a452f Ta_pv/POTCAR          
   COPYR  = (c) Copyright 07Sep2000 Georg Kresse                                                    
   COPYR  = This file is part of the software VASP. Any use, copying, and all other rights are regul
   COPYR  = If you do not have a valid VASP license, you may not use, copy or distribute this file. 
   VRHFIN =Ta:  5p6s5d                                                                              
   LEXCH  = PE                                                                                      
   EATOM  =  1047.1984 eV,   76.9669 Ry                                                             
                                                                                                    
   TITEL  = PAW_PBE Ta_pv 07Sep2000                                                                 
   LULTRA =        F    use ultrasoft PP ?                                                          
   IUNSCR =        1    unscreen: 0-lin 1-nonlin 2-no                                               
   RPACOR =    2.330    partial core radius                                                         
   POMASS =  180.948; ZVAL   =   11.000    mass and valenz                                          
   RCORE  =    2.500    outmost cutoff radius                                                       
   RWIGS  =    2.840; RWIGS  =    1.503    wigner-seitz radius (au A)                               
   ENMAX  =  223.667; ENMIN  =  167.750 eV                                                          
   RCLOC  =    2.205    cutoff for local pot                                                        
   LCOR   =        T    correct aug charges                                                         
   LPAW   =        T    paw PP                                                                      
   EAUG   =  377.421                                                                                
   DEXC   =    0.000                                                                                
   RMAX   =    2.551    core radius for proj-oper                                                   
   RAUG   =    1.300    factor for augmentation sphere                                              
   RDEP   =    2.526    radius for radial grids                                                     
   RDEPT  =    2.132    core radius for aug-charge                                                  
                                                                                                    
   Atomic configuration                                                                             
   15 entries                                                                                       
     n  l   j            E        occ.                                                              
     1  0  0.50    -67341.2801   2.0000                                                             
     2  0  0.50    -11566.9369   2.0000                                                             
     2  1  1.50    -10134.1175   6.0000                                                             
     3  0  0.50     -2648.5614   2.0000                                                             
     3  1  1.50     -2222.6006   6.0000                                                             
     3  2  2.50     -1726.3114  10.0000                                                             
     4  0  0.50      -538.6957   2.0000                                                             
     4  1  1.50      -399.0125   6.0000                                                             
     4  2  2.50      -220.3955  10.0000                                                             
     4  3  3.50       -23.0371  14.0000                                                             
     5  0  0.50       -71.2900   2.0000                                                             
     5  1  1.50       -37.8224   6.0000                                                             
     5  2  2.50        -2.6455   4.0000                                                             
     6  0  0.50        -4.9623   1.0000                                                             
     5  3  2.50        -1.3606   0.0000                                                             
   Description                                                                                      
     l       E           TYP  RCUT    TYP  RCUT                                                     
     1    -37.8224449     23  2.500                                                                 
     1      1.3605826     23  2.500                                                                 
     2     -2.6454718     23  2.500                                                                 
     2     -0.6258570     23  2.500                                                                 
     0     -4.9622674     23  2.500                                                                 
     0      4.7531427     23  2.500                                                                 
  local pseudopotential read in
  partial core-charges read in
  partial kinetic energy density read in
  atomic valenz-charges read in
  non local Contribution for L=           1  read in
    real space projection operators read in
  non local Contribution for L=           1  read in
    real space projection operators read in
  non local Contribution for L=           2  read in
    real space projection operators read in
  non local Contribution for L=           2  read in
    real space projection operators read in
  non local Contribution for L=           0  read in
    real space projection operators read in
  non local Contribution for L=           0  read in
    real space projection operators read in
    PAW grid and wavefunctions read in
 
   number of l-projection  operators is LMAX  =           6
   number of lm-projection operators is LMMAX =          18
 
 POTCAR:    PAW_PBE W_sv 04Sep2015                
   SHA256 =  931c2d770f65867ef30f3db3421922900fc0890ebac5c3e12f63b6a2064023d7 W_sv/POTCAR           
   COPYR  = (c) Copyright 04Sep2015 Georg Kresse                                                    
   COPYR  = This file is part of the software VASP. Any use, copying, and all other rights are regul
   COPYR  = If you do not have a valid VASP license, you may not use, copy or distribute this file. 
   VRHFIN =W : 5p6s5d                                                                               
   LEXCH  = PE                                                                                      
   EATOM  =  1865.5791 eV,  137.1162 Ry                                                             
                                                                                                    
   TITEL  = PAW_PBE W_sv 04Sep2015                                                                  
   LULTRA =        F    use ultrasoft PP ?                                                          
   IUNSCR =        1    unscreen: 0-lin 1-nonlin 2-no                                               
   RPACOR =    2.330    partial core radius                                                         
   POMASS =  183.850; ZVAL   =   14.000    mass and valenz                                          
   RCORE  =    2.500    outmost cutoff radius                                                       
   RWIGS  =    2.750; RWIGS  =    1.455    wigner-seitz radius (au A)                               
   ENMAX  =  223.057; ENMIN  =  167.293 eV                                                          
   ICORE  =        3    local potential                                                             
   LCOR   =        T    correct aug charges                                                         
   LPAW   =        T    paw PP                                                                      
   EAUG   =  373.438                                                                                
   DEXC   =    0.000                                                                                
   RMAX   =    2.565    core radius for proj-oper                                                   
   RAUG   =    1.300    factor for augmentation sphere                                              
   RDEP   =    2.539    radius for radial grids                                                     
   RDEPT  =    2.126    core radius for aug-charge                                                  
                                                                                                    
   Atomic configuration                                                                             
   15 entries                                                                                       
     n  l   j            E        occ.                                                              
     1  0  0.50    -69465.5834   2.0000                                                             
     2  0  0.50    -11986.2640   2.0000                                                             
     2  1  1.50    -10479.8613   6.0000                                                             
     3  0  0.50     -2759.0756   2.0000                                                             
     3  1  1.50     -2313.1855   6.0000                                                             
     3  2  2.50     -1801.1183  10.0000                                                             
     4  0  0.50      -567.6789   2.0000                                                             
     4  1  1.50      -421.4692   6.0000                                                             
     4  2  2.50      -236.3471  10.0000                                                             
     4  3  3.50       -31.2665  14.0000                                                             
     5  0  0.50       -77.1084   2.0000                                                             
     6  0  0.50        -5.1438   1.0000                                                             
     5  1  1.50       -41.3856   6.0000                                                             
     5  2  2.50        -3.3185   5.0000                                                             
     5  3  2.50        -1.3606   0.0000                                                             
   Description                                                                                      
     l       E           TYP  RCUT    TYP  RCUT                                                     
     0    -77.1084470     23  2.100                                                                 
     0     -5.1437956     23  2.300                                                                 
     1    -41.3855615     23  2.500                                                                 
     1     -2.7211652     23  2.500                                                                 
     2     -3.3185025     23  2.500                                                                 
     2     -1.5965151     23  2.500                                                                 
     3     -1.3605826     23  2.500                                                                 
  local pseudopotential read in
  partial core-charges read in
  partial kinetic energy density read in
  kinetic energy density of atom read in
  atomic valenz-charges read in
  non local Contribution for L=           0  read in
    real space projection operators read in
  non local Contribution for L=           0  read in
    real space projection operators read in
  non local Contribution for L=           1  read in
    real space projection operators read in
  non local Contribution for L=           1  read in
    real space projection operators read in
  non local Contribution for L=           2  read in
    real space projection operators read in
  non local Contribution for L=           2  read in
    real space projection operators read in
    PAW grid and wavefunctions read in
 
   number of l-projection  operators is LMAX  =           6
   number of lm-projection operators is LMMAX =          18
 
  PAW_PBE Nb_sv 25May2007               :
 energy of atom  1       EATOM=-1555.1913
 kinetic energy error for atom=    0.2155 (will be added to EATOM!!)
  PAW_PBE Mo_sv 02Feb2006               :
 energy of atom  2       EATOM=-1862.2866
 kinetic energy error for atom=    0.1102 (will be added to EATOM!!)
  PAW_PBE Ta_pv 07Sep2000               :
 energy of atom  3       EATOM=-1047.1984
 kinetic energy error for atom=    0.0394 (will be added to EATOM!!)
  PAW_PBE W_sv 04Sep2015                :
 energy of atom  4       EATOM=-1865.5791
 kinetic energy error for atom=    0.0589 (will be added to EATOM!!)
 
 
 POSCAR: Nb-Mo-Ta-W alloy
  positions in direct lattice
  No initial velocities read in
 exchange correlation table for  LEXCH =        8
   RHO(1)=    0.500       N(1)  =     2000
   RHO(2)=  100.500       N(2)  =     4000
 


--------------------------------------------------------------------------------------------------------


 ion  position               nearest neighbor table
   1  0.500  0.000  0.000-   3 2.85   4 2.85   6 2.85   7 2.85   8 2.85   9 2.85  13 2.85  15 2.85

   2  0.000  0.500  0.500-   3 2.85   4 2.85   6 2.85   7 2.85   8 2.85   9 2.85  13 2.85  15 2.85
                            11 3.29  12 3.29  12 3.29  11 3.29
   3  0.750  0.750  0.250-   1 2.85   2 2.85   5 2.85  10 2.85  11 2.85  12 2.85  14 2.85  16 2.85

   4  0.250  0.750  0.750-   1 2.85   2 2.85   5 2.85  10 2.85  11 2.85  12 2.85  14 2.85  16 2.85

   5  0.500  0.000  0.500-   3 2.85   4 2.85   6 2.85   7 2.85   8 2.85   9 2.85  13 2.85  15 2.85
                            11 3.29  11 3.29
   6  0.750  0.250  0.250-   1 2.85   2 2.85   5 2.85  10 2.85  11 2.85  12 2.85  14 2.85  16 2.85
                            13 3.29  13 3.29
   7  0.250  0.750  0.250-   1 2.85   2 2.85   5 2.85  10 2.85  11 2.85  12 2.85  14 2.85  16 2.85
                            13 3.29  13 3.29
   8  0.250  0.250  0.750-   1 2.85   2 2.85   5 2.85  10 2.85  11 2.85  12 2.85  14 2.85  16 2.85
                             9 3.29  13 3.29  13 3.29   9 3.29
   9  0.750  0.250  0.750-   1 2.85   2 2.85   5 2.85  10 2.85  11 2.85  12 2.85  14 2.85  16 2.85
                            15 3.29   8 3.29  15 3.29   8 3.29
  10  0.500  0.500  0.000-   3 2.85   4 2.85   6 2.85   7 2.85   8 2.85   9 2.85  13 2.85  15 2.85
                            11 3.29  12 3.29  11 3.29  12 3.29
  11  0.500  0.500  0.500-   3 2.85   4 2.85   6 2.85   7 2.85   8 2.85   9 2.85  13 2.85  15 2.85
                            10 3.29   2 3.29   5 3.29  10 3.29   5 3.29   2 3.29
  12  0.000  0.500  0.000-   3 2.85   4 2.85   6 2.85   7 2.85   8 2.85   9 2.85  13 2.85  15 2.85
                             2 3.29  14 3.29  10 3.29   2 3.29  14 3.29  10 3.29
  13  0.250  0.250  0.250-   1 2.85   2 2.85   5 2.85  10 2.85  11 2.85  12 2.85  14 2.85  16 2.85
                             8 3.29   6 3.29   7 3.29   8 3.29   7 3.29   6 3.29
  14  0.000  0.000  0.000-   3 2.85   4 2.85   6 2.85   7 2.85   8 2.85   9 2.85  13 2.85  15 2.85
                            12 3.29  16 3.29  16 3.29  12 3.29
  15  0.750  0.750  0.750-   1 2.85   2 2.85   5 2.85  10 2.85  11 2.85  12 2.85  14 2.85  16 2.85
                             9 3.29   9 3.29
  16  0.000  0.000  0.500-   3 2.85   4 2.85   6 2.85   7 2.85   8 2.85   9 2.85  13 2.85  15 2.85
                            14 3.29  14 3.29
 
  LATTYP: Found a simple cubic cell.
 ALAT       =     6.5800000000
  
  Lattice vectors:
  
 A1 = (   6.5800000000,   0.0000000000,   0.0000000000)
 A2 = (   0.0000000000,   6.5800000000,   0.0000000000)
 A3 = (   0.0000000000,   0.0000000000,   6.5800000000)


Analysis of symmetry for initial positions (statically):
=====================================================================
 Subroutine PRICEL returns:
 Original cell was already a primitive cell.
 

 Routine SETGRP: Setting up the symmetry group for a 
 simple cubic supercell.


 Subroutine GETGRP returns: Found  1 space group operations
 (whereof  1 operations were pure point group operations)
 out of a pool of 48 trial point group operations.


The static configuration has the point symmetry C_1 .


Analysis of symmetry for dynamics (positions and initial velocities):
=====================================================================
 Subroutine PRICEL returns:
 Original cell was already a primitive cell.
 

 Routine SETGRP: Setting up the symmetry group for a 
 simple cubic supercell.


 Subroutine GETGRP returns: Found  1 space group operations
 (whereof  1 operations were pure point group operations)
 out of a pool of 48 trial point group operations.


The dynamic configuration has the point symmetry C_1 .


 Subroutine INISYM returns: Found  1 space group operations
 (whereof  1 operations are pure point group operations),
 and found     1 'primitive' translations


----------------------------------------------------------------------------------------

                                     Primitive cell                                     

  volume of cell :     284.8903

  direct lattice vectors                    reciprocal lattice vectors
     6.580000000  0.000000000  0.000000000     0.151975684  0.000000000  0.000000000
     0.000000000  6.580000000  0.000000000     0.000000000  0.151975684  0.000000000
     0.000000000  0.000000000  6.580000000     0.000000000  0.000000000  0.151975684

  length of vectors
     6.580000000  6.580000000  6.580000000     0.151975684  0.151975684  0.151975684

  position of ions in fractional coordinates (direct lattice)
     0.500000000  0.000000000  0.000000000
     0.000000000  0.500000000  0.500000000
     0.750000000  0.750000000  0.250000000
     0.250000000  0.750000000  0.750000000
     0.500000000  0.000000000  0.500000000
     0.750000000  0.250000000  0.250000000
     0.250000000  0.750000000  0.250000000
     0.250000000  0.250000000  0.750000000
     0.750000000  0.250000000  0.750000000
     0.500000000  0.500000000  0.000000000
     0.500000000  0.500000000  0.500000000
     0.000000000  0.500000000  0.000000000
     0.250000000  0.250000000  0.250000000
     0.000000000  0.000000000  0.000000000
     0.750000000  0.750000000  0.750000000
     0.000000000  0.000000000  0.500000000

  ion indices of the primitive-cell ions
   primitive index   ion index
                 1           1
                 2           2
                 3           3
                 4           4
                 5           5
                 6           6
                 7           7
                 8           8
                 9           9
                10          10
                11          11
                12          12
                13          13
                14          14
                15          15
                16          16

----------------------------------------------------------------------------------------

 
 
 KPOINTS: K-Spacing Value to Generate K-Mesh: 0.03

Automatic generation of k-mesh.
 Grid dimensions read from file:
 generate k-points for:    5    5    5

 Generating k-lattice:

  Cartesian coordinates                     Fractional coordinates (reciprocal lattice)
     0.030395137  0.000000000  0.000000000     0.200000000  0.000000000  0.000000000
     0.000000000  0.030395137  0.000000000     0.000000000  0.200000000  0.000000000
     0.000000000  0.000000000  0.030395137     0.000000000  0.000000000  0.200000000

  Length of vectors
     0.030395137  0.030395137  0.030395137

  Shift w.r.t. Gamma in fractional coordinates (k-lattice)
     0.000000000  0.000000000  0.000000000

 
 Subroutine IBZKPT returns following result:
 ===========================================
 
 Found     63 irreducible k-points:
 
 Following reciprocal coordinates:
            Coordinates               Weight
  0.000000  0.000000  0.000000      1.000000
  0.200000  0.000000  0.000000      2.000000
  0.000000  0.200000  0.000000      2.000000
  0.000000  0.000000  0.200000      2.000000
  0.400000  0.000000  0.000000      2.000000
  0.000000  0.400000  0.000000      2.000000
  0.000000  0.000000  0.400000      2.000000
  0.200000  0.200000  0.000000      2.000000
  0.000000  0.200000  0.200000      2.000000
  0.200000  0.000000  0.200000      2.000000
 -0.200000  0.200000  0.000000      2.000000
 -0.200000  0.000000  0.200000      2.000000
  0.000000 -0.200000  0.200000      2.000000
  0.400000  0.200000  0.000000      2.000000
  0.000000  0.400000  0.200000      2.000000
  0.200000  0.000000  0.400000      2.000000
 -0.200000  0.400000  0.000000      2.000000
 -0.400000  0.000000  0.200000      2.000000
  0.000000  0.200000  0.400000      2.000000
  0.000000 -0.400000  0.200000      2.000000
 -0.200000  0.000000  0.400000      2.000000
  0.400000  0.000000  0.200000      2.000000
  0.000000 -0.200000  0.400000      2.000000
  0.400000 -0.200000  0.000000      2.000000
  0.200000  0.400000  0.000000      2.000000
  0.400000  0.400000  0.000000      2.000000
  0.000000  0.400000  0.400000      2.000000
  0.400000  0.000000  0.400000      2.000000
 -0.400000  0.400000  0.000000      2.000000
 -0.400000  0.000000  0.400000      2.000000
  0.000000 -0.400000  0.400000      2.000000
  0.200000  0.200000  0.200000      2.000000
 -0.200000  0.200000  0.200000      2.000000
 -0.200000 -0.200000  0.200000      2.000000
  0.200000 -0.200000  0.200000      2.000000
  0.400000  0.200000  0.200000      2.000000
  0.200000  0.400000  0.200000      2.000000
  0.200000  0.200000  0.400000      2.000000
 -0.200000  0.400000  0.200000      2.000000
 -0.400000  0.200000  0.200000      2.000000
 -0.200000  0.200000  0.400000      2.000000
 -0.400000 -0.200000  0.200000      2.000000
 -0.200000 -0.400000  0.200000      2.000000
 -0.200000 -0.200000  0.400000      2.000000
  0.200000 -0.400000  0.200000      2.000000
  0.400000 -0.200000  0.200000      2.000000
  0.200000 -0.200000  0.400000      2.000000
  0.400000  0.400000  0.200000      2.000000
  0.200000  0.400000  0.400000      2.000000
  0.400000  0.200000  0.400000      2.000000
 -0.400000  0.400000  0.200000      2.000000
 -0.400000  0.200000  0.400000      2.000000
 -0.200000  0.400000  0.400000      2.000000
 -0.400000 -0.400000  0.200000      2.000000
 -0.200000 -0.400000  0.400000      2.000000
 -0.400000 -0.200000  0.400000      2.000000
  0.400000 -0.400000  0.200000      2.000000
  0.400000 -0.200000  0.400000      2.000000
  0.200000 -0.400000  0.400000      2.000000
  0.400000  0.400000  0.400000      2.000000
 -0.400000  0.400000  0.400000      2.000000
 -0.400000 -0.400000  0.400000      2.000000
  0.400000 -0.400000  0.400000      2.000000
 
 Following cartesian coordinates:
            Coordinates               Weight
  0.000000  0.000000  0.000000      1.000000
  0.030395  0.000000  0.000000      2.000000
  0.000000  0.030395  0.000000      2.000000
  0.000000  0.000000  0.030395      2.000000
  0.060790  0.000000  0.000000      2.000000
  0.000000  0.060790  0.000000      2.000000
  0.000000  0.000000  0.060790      2.000000
  0.030395  0.030395  0.000000      2.000000
  0.000000  0.030395  0.030395      2.000000
  0.030395  0.000000  0.030395      2.000000
 -0.030395  0.030395  0.000000      2.000000
 -0.030395  0.000000  0.030395      2.000000
  0.000000 -0.030395  0.030395      2.000000
  0.060790  0.030395  0.000000      2.000000
  0.000000  0.060790  0.030395      2.000000
  0.030395  0.000000  0.060790      2.000000
 -0.030395  0.060790  0.000000      2.000000
 -0.060790  0.000000  0.030395      2.000000
  0.000000  0.030395  0.060790      2.000000
  0.000000 -0.060790  0.030395      2.000000
 -0.030395  0.000000  0.060790      2.000000
  0.060790  0.000000  0.030395      2.000000
  0.000000 -0.030395  0.060790      2.000000
  0.060790 -0.030395  0.000000      2.000000
  0.030395  0.060790  0.000000      2.000000
  0.060790  0.060790  0.000000      2.000000
  0.000000  0.060790  0.060790      2.000000
  0.060790  0.000000  0.060790      2.000000
 -0.060790  0.060790  0.000000      2.000000
 -0.060790  0.000000  0.060790      2.000000
  0.000000 -0.060790  0.060790      2.000000
  0.030395  0.030395  0.030395      2.000000
 -0.030395  0.030395  0.030395      2.000000
 -0.030395 -0.030395  0.030395      2.000000
  0.030395 -0.030395  0.030395      2.000000
  0.060790  0.030395  0.030395      2.000000
  0.030395  0.060790  0.030395      2.000000
  0.030395  0.030395  0.060790      2.000000
 -0.030395  0.060790  0.030395      2.000000
 -0.060790  0.030395  0.030395      2.000000
 -0.030395  0.030395  0.060790      2.000000
 -0.060790 -0.030395  0.030395      2.000000
 -0.030395 -0.060790  0.030395      2.000000
 -0.030395 -0.030395  0.060790      2.000000
  0.030395 -0.060790  0.030395      2.000000
  0.060790 -0.030395  0.030395      2.000000
  0.030395 -0.030395  0.060790      2.000000
  0.060790  0.060790  0.030395      2.000000
  0.030395  0.060790  0.060790      2.000000
  0.060790  0.030395  0.060790      2.000000
 -0.060790  0.060790  0.030395      2.000000
 -0.060790  0.030395  0.060790      2.000000
 -0.030395  0.060790  0.060790      2.000000
 -0.060790 -0.060790  0.030395      2.000000
 -0.030395 -0.060790  0.060790      2.000000
 -0.060790 -0.030395  0.060790      2.000000
  0.060790 -0.060790  0.030395      2.000000
  0.060790 -0.030395  0.060790      2.000000
  0.030395 -0.060790  0.060790      2.000000
  0.060790  0.060790  0.060790      2.000000
 -0.060790  0.060790  0.060790      2.000000
 -0.060790 -0.060790  0.060790      2.000000
  0.060790 -0.060790  0.060790      2.000000
 


--------------------------------------------------------------------------------------------------------




 Dimension of arrays:
   k-points           NKPTS =     63   k-points in BZ     NKDIM =     63   number of bands    NBANDS=    128
   number of dos      NEDOS =    301   number of ions     NIONS =     16
   non local maximal  LDIM  =      6   non local SUM 2l+1 LMDIM =     18
   total plane-waves  NPLWV =  46656
   max r-space proj   IRMAX =      1   max aug-charges    IRDMAX=   9546
   dimension x,y,z NGX =    36 NGY =   36 NGZ =   36
   dimension x,y,z NGXF=    72 NGYF=   72 NGZF=   72
   support grid    NGXF=    72 NGYF=   72 NGZF=   72
   ions per type =               6   4   3   3
   NGX,Y,Z   is equivalent  to a cutoff of   9.10,  9.10,  9.10 a.u.
   NGXF,Y,Z  is equivalent  to a cutoff of  18.19, 18.19, 18.19 a.u.

 SYSTEM =  unknown system                          
 POSCAR =  Nb-Mo-Ta-W alloy                        

 Startparameter for this run:
   NWRITE =      2    write-flag & timer
   PREC   = accura    normal or accurate (medium, high low for compatibility)
   ISTART =      0    job   : 0-new  1-cont  2-samecut
   ICHARG =      2    charge: 1-file 2-atom 10-const
   ISPIN  =      1    spin polarized calculation?
   LNONCOLLINEAR =      F non collinear calculations
   LSORBIT =      F    spin-orbit coupling
   INIWAV =      1    electr: 0-lowe 1-rand  2-diag
   LASPH  =      F    aspherical Exc in radial PAW
 Electronic Relaxation 1
   ENCUT  =  250.0 eV  18.37 Ry    4.29 a.u.   8.48  8.48  8.48*2*pi/ulx,y,z
   ENINI  =  250.0     initial cutoff
   ENAUG  =  455.7 eV  augmentation charge cutoff
   NELM   =     80;   NELMIN=  2; NELMDL= -5     # of ELM steps 
   EDIFF  = 0.1E-07   stopping-criterion for ELM
   LREAL  =      F    real-space projection
   NLSPLINE    = F    spline interpolate recip. space projectors
   LCOMPAT=      F    compatible to vasp.4.4
   GGA_COMPAT  = T    GGA compatible to vasp.4.4-vasp.4.6
   LMAXPAW     = -100 max onsite density
   LMAXMIX     =    2 max onsite mixed and CHGCAR
   VOSKOWN=      0    Vosko Wilk Nusair interpolation
   ROPT   =    0.00000   0.00000   0.00000   0.00000
 Ionic relaxation
   EDIFFG = -.1E-01   stopping-criterion for IOM
   NSW    =      0    number of steps for IOM
   NBLOCK =      1;   KBLOCK =      1    inner block; outer block 
   IBRION =     -1    ionic relax: 0-MD 1-quasi-New 2-CG
   NFREE  =      0    steps in history (QN), initial steepest desc. (CG)
   ISIF   =      2    stress and relaxation
   IWAVPR =     10    prediction:  0-non 1-charg 2-wave 3-comb
   ISYM   =      2    0-nonsym 1-usesym 2-fastsym
   LCORR  =      T    Harris-Foulkes like correction to forces

   POTIM  = 0.5000    time-step for ionic-motion
   TEIN   =    0.0    initial temperature
   TEBEG  =    0.0;   TEEND  =   0.0 temperature during run
   SMASS  =  -3.00    Nose mass-parameter (am)
   estimated Nose-frequenzy (Omega)   =  0.10E-29 period in steps = 0.13E+47 mass=  -0.989E-27a.u.
   SCALEE = 1.0000    scale energy and forces
   NPACO  =    256;   APACO  = 10.0  distance and # of slots for P.C.
   PSTRESS=    0.0 pullay stress

  Mass of Ions in am
   POMASS =  92.91 95.94180.95183.85
  Ionic Valenz
   ZVAL   =  13.00 14.00 11.00 14.00
  Atomic Wigner-Seitz radii
   RWIGS  =  -1.00 -1.00 -1.00 -1.00
  virtual crystal weights 
   VCA    =   1.00  1.00  1.00  1.00
   NELECT =     209.0000    total number of electrons
   NUPDOWN=      -1.0000    fix difference up-down

 DOS related values:
   EMIN   =  10.00;   EMAX   =-10.00  energy-range for DOS
   EFERMI =   0.00
   ISMEAR =     0;   SIGMA  =   0.02  broadening in eV -4-tet -1-fermi 0-gaus

 Electronic relaxation 2 (details)
   IALGO  =     38    algorithm
   LDIAG  =      T    sub-space diagonalisation (order eigenvalues)
   LSUBROT=      F    optimize rotation matrix (better conditioning)
   TURBO    =      0    0=normal 1=particle mesh
   IRESTART =      0    0=no restart 2=restart with 2 vectors
   NREBOOT  =      0    no. of reboots
   NMIN     =      0    reboot dimension
   EREF     =   0.00    reference energy to select bands
   IMIX   =      4    mixing-type and parameters
     AMIX     =   0.40;   BMIX     =  1.00
     AMIX_MAG =   1.60;   BMIX_MAG =  1.00
     AMIN     =   0.10
     WC   =   100.;   INIMIX=   1;  MIXPRE=   1;  MAXMIX= -45

 Intra band minimization:
   WEIMIN = 0.0000     energy-eigenvalue tresh-hold
   EBREAK =  0.20E-10  absolut break condition
   DEPER  =   0.30     relativ break condition  

   TIME   =   0.40     timestep for ELM

  volume/ion in A,a.u.               =      17.81       120.16
  Fermi-wavevector in a.u.,A,eV,Ry     =   1.476492  2.790165 29.661081  2.180028
  Thomas-Fermi vector in A             =   2.591012
 
 Write flags
   LWAVE        =      F    write WAVECAR
   LDOWNSAMPLE  =      F    k-point downsampling of WAVECAR
   LCHARG       =      F    write CHGCAR
   LVTOT        =      F    write LOCPOT, total local potential
   LVHAR        =      F    write LOCPOT, Hartree potential only
   LELF         =      F    write electronic localiz. function (ELF)
   LORBIT       =      0    0 simple, 1 ext, 2 COOP (PROOUT), +10 PAW based schemes


 Dipole corrections
   LMONO  =      F    monopole corrections only (constant potential shift)
   LDIPOL =      F    correct potential (dipole corrections)
   IDIPOL =      0    1-x, 2-y, 3-z, 4-all directions 
   EPSILON=  1.0000000 bulk dielectric constant

 Core level calculations are selected ICORELEVEL =  1
 Exchange correlation treatment:
   GGA     =    PE    GGA type
   LEXCH   =     8    internal setting for exchange type
   LIBXC   =     F    Libxc                    
   VOSKOWN =     0    Vosko Wilk Nusair interpolation
   LHFCALC =     F    Hartree Fock is set to
   LHFONE  =     F    Hartree Fock one center treatment
   AEXX    =    0.0000 exact exchange contribution

 Linear response parameters
   LEPSILON=     F    determine dielectric tensor
   LRPA    =     F    only Hartree local field effects (RPA)
   LNABLA  =     F    use nabla operator in PAW spheres
   LVEL    =     F    velocity operator in full k-point grid
   CSHIFT  =0.1000    complex shift for real part using Kramers Kronig
   OMEGAMAX=  -1.0    maximum frequency
   DEG_THRESHOLD= 0.2000000E-02 threshold for treating states as degnerate
   RTIME   =   -0.100 relaxation time in fs
  (WPLASMAI=    0.000 imaginary part of plasma frequency in eV, 0.658/RTIME)
   DFIELD  = 0.0000000 0.0000000 0.0000000 field for delta impulse in time
 
  Optional k-point grid parameters
   LKPOINTS_OPT  =     F    use optional k-point grid
   KPOINTS_OPT_MODE=     1    mode for optional k-point grid
 
 Orbital magnetization related:
   ORBITALMAG=     F  switch on orbital magnetization
   LCHIMAG   =     F  perturbation theory with respect to B field
   DQ        =  0.001000  dq finite difference perturbation B field
   LLRAUG    =     F  two centre corrections for induced B field



--------------------------------------------------------------------------------------------------------


 Static calculation
 charge density and potential will be updated during run
 non-spin polarized calculation
 Variant of blocked Davidson
 Davidson routine will perform the subspace rotation
 perform sub-space diagonalisation
    after iterative eigenvector-optimisation
 modified Broyden-mixing scheme, WC =      100.0
 initial mixing is a Kerker type mixing with AMIX =  0.4000 and BMIX =      1.0000
 Hartree-type preconditioning will be used
 using additional bands           23
 reciprocal scheme for non local part
 use partial core corrections
 calculate Harris-corrections to forces 
   (improved forces if not selfconsistent)
 use gradient corrections 
 use of overlap-Matrix (Vanderbilt PP)
 Gauss-broadening in eV      SIGMA  =   0.02


--------------------------------------------------------------------------------------------------------


  energy-cutoff  :      250.00
  volume of cell :      284.89
      direct lattice vectors                 reciprocal lattice vectors
     6.580000000  0.000000000  0.000000000     0.151975684  0.000000000  0.000000000
     0.000000000  6.580000000  0.000000000     0.000000000  0.151975684  0.000000000
     0.000000000  0.000000000  6.580000000     0.000000000  0.000000000  0.151975684

  length of vectors
     6.580000000  6.580000000  6.580000000     0.151975684  0.151975684  0.151975684


 
 k-points in units of 2pi/SCALE and weight: K-Spacing Value to Generate K-Mesh: 0.03
   0.00000000  0.00000000  0.00000000       0.008
   0.03039514  0.00000000  0.00000000       0.016
   0.00000000  0.03039514  0.00000000       0.016
   0.00000000  0.00000000  0.03039514       0.016
   0.06079027  0.00000000  0.00000000       0.016
   0.00000000  0.06079027  0.00000000       0.016
   0.00000000  0.00000000  0.06079027       0.016
   0.03039514  0.03039514  0.00000000       0.016
   0.00000000  0.03039514  0.03039514       0.016
   0.03039514  0.00000000  0.03039514       0.016
  -0.03039514  0.03039514  0.00000000       0.016
  -0.03039514  0.00000000  0.03039514       0.016
   0.00000000 -0.03039514  0.03039514       0.016
   0.06079027  0.03039514  0.00000000       0.016
   0.00000000  0.06079027  0.03039514       0.016
   0.03039514  0.00000000  0.06079027       0.016
  -0.03039514  0.06079027  0.00000000       0.016
  -0.06079027  0.00000000  0.03039514       0.016
   0.00000000  0.03039514  0.06079027       0.016
   0.00000000 -0.06079027  0.03039514       0.016
  -0.03039514  0.00000000  0.06079027       0.016
   0.06079027  0.00000000  0.03039514       0.016
   0.00000000 -0.03039514  0.06079027       0.016
   0.06079027 -0.03039514  0.00000000       0.016
   0.03039514  0.06079027  0.00000000       0.016
   0.06079027  0.06079027  0.00000000       0.016
   0.00000000  0.06079027  0.06079027       0.016
   0.06079027  0.00000000  0.06079027       0.016
  -0.06079027  0.06079027  0.00000000       0.016
  -0.06079027  0.00000000  0.06079027       0.016
   0.00000000 -0.06079027  0.06079027       0.016
   0.03039514  0.03039514  0.03039514       0.016
  -0.03039514  0.03039514  0.03039514       0.016
  -0.03039514 -0.03039514  0.03039514       0.016
   0.03039514 -0.03039514  0.03039514       0.016
   0.06079027  0.03039514  0.03039514       0.016
   0.03039514  0.06079027  0.03039514       0.016
   0.03039514  0.03039514  0.06079027       0.016
  -0.03039514  0.06079027  0.03039514       0.016
  -0.06079027  0.03039514  0.03039514       0.016
  -0.03039514  0.03039514  0.06079027       0.016
  -0.06079027 -0.03039514  0.03039514       0.016
  -0.03039514 -0.06079027  0.03039514       0.016
  -0.03039514 -0.03039514  0.06079027       0.016
   0.03039514 -0.06079027  0.03039514       0.016
   0.06079027 -0.03039514  0.03039514       0.016
   0.03039514 -0.03039514  0.06079027       0.016
   0.06079027  0.06079027  0.03039514       0.016
   0.03039514  0.06079027  0.06079027       0.016
   0.06079027  0.03039514  0.06079027       0.016
  -0.06079027  0.06079027  0.03039514       0.016
  -0.06079027  0.03039514  0.06079027       0.016
  -0.03039514  0.06079027  0.06079027       0.016
  -0.06079027 -0.06079027  0.03039514       0.016
  -0.03039514 -0.06079027  0.06079027       0.016
  -0.06079027 -0.03039514  0.06079027       0.016
   0.06079027 -0.06079027  0.03039514       0.016
   0.06079027 -0.03039514  0.06079027       0.016
   0.03039514 -0.06079027  0.06079027       0.016
   0.06079027  0.06079027  0.06079027       0.016
  -0.06079027  0.06079027  0.06079027       0.016
  -0.06079027 -0.06079027  0.06079027       0.016
   0.06079027 -0.06079027  0.06079027       0.016
 
 k-points in reciprocal lattice and weights: K-Spacing Value to Generate K-Mesh: 0.03
   0.00000000  0.00000000  0.00000000       0.008
   0.20000000  0.00000000  0.00000000       0.016
   0.00000000  0.20000000  0.00000000       0.016
   0.00000000  0.00000000  0.20000000       0.016
   0.40000000  0.00000000  0.00000000       0.016
   0.00000000  0.40000000  0.00000000       0.016
   0.00000000  0.00000000  0.40000000       0.016
   0.20000000  0.20000000  0.00000000       0.016
   0.00000000  0.20000000  0.20000000       0.016
   0.20000000  0.00000000  0.20000000       0.016
  -0.20000000  0.20000000  0.00000000       0.016
  -0.20000000  0.00000000  0.20000000       0.016
   0.00000000 -0.20000000  0.20000000       0.016
   0.40000000  0.20000000  0.00000000       0.016
   0.00000000  0.40000000  0.20000000       0.016
   0.20000000  0.00000000  0.40000000       0.016
  -0.20000000  0.40000000  0.00000000       0.016
  -0.40000000  0.00000000  0.20000000       0.016
   0.00000000  0.20000000  0.40000000       0.016
   0.00000000 -0.40000000  0.20000000       0.016
  -0.20000000  0.00000000  0.40000000       0.016
   0.40000000  0.00000000  0.20000000       0.016
   0.00000000 -0.20000000  0.40000000       0.016
   0.40000000 -0.20000000  0.00000000       0.016
   0.20000000  0.40000000  0.00000000       0.016
   0.40000000  0.40000000  0.00000000       0.016
   0.00000000  0.40000000  0.40000000       0.016
   0.40000000  0.00000000  0.40000000       0.016
  -0.40000000  0.40000000  0.00000000       0.016
  -0.40000000  0.00000000  0.40000000       0.016
   0.00000000 -0.40000000  0.40000000       0.016
   0.20000000  0.20000000  0.20000000       0.016
  -0.20000000  0.20000000  0.20000000       0.016
  -0.20000000 -0.20000000  0.20000000       0.016
   0.20000000 -0.20000000  0.20000000       0.016
   0.40000000  0.20000000  0.20000000       0.016
   0.20000000  0.40000000  0.20000000       0.016
   0.20000000  0.20000000  0.40000000       0.016
  -0.20000000  0.40000000  0.20000000       0.016
  -0.40000000  0.20000000  0.20000000       0.016
  -0.20000000  0.20000000  0.40000000       0.016
  -0.40000000 -0.20000000  0.20000000       0.016
  -0.20000000 -0.40000000  0.20000000       0.016
  -0.20000000 -0.20000000  0.40000000       0.016
   0.20000000 -0.40000000  0.20000000       0.016
   0.40000000 -0.20000000  0.20000000       0.016
   0.20000000 -0.20000000  0.40000000       0.016
   0.40000000  0.40000000  0.20000000       0.016
   0.20000000  0.40000000  0.40000000       0.016
   0.40000000  0.20000000  0.40000000       0.016
  -0.40000000  0.40000000  0.20000000       0.016
  -0.40000000  0.20000000  0.40000000       0.016
  -0.20000000  0.40000000  0.40000000       0.016
  -0.40000000 -0.40000000  0.20000000       0.016
  -0.20000000 -0.40000000  0.40000000       0.016
  -0.40000000 -0.20000000  0.40000000       0.016
   0.40000000 -0.40000000  0.20000000       0.016
   0.40000000 -0.20000000  0.40000000       0.016
   0.20000000 -0.40000000  0.40000000       0.016
   0.40000000  0.40000000  0.40000000       0.016
  -0.40000000  0.40000000  0.40000000       0.016
  -0.40000000 -0.40000000  0.40000000       0.016
   0.40000000 -0.40000000  0.40000000       0.016
 
 position of ions in fractional coordinates (direct lattice) 
   0.50000000  0.00000000  0.00000000
   0.00000000  0.50000000  0.50000000
   0.75000000  0.75000000  0.25000000
   0.25000000  0.75000000  0.75000000
   0.50000000  0.00000000  0.50000000
   0.75000000  0.25000000  0.25000000
   0.25000000  0.75000000  0.25000000
   0.25000000  0.25000000  0.75000000
   0.75000000  0.25000000  0.75000000
   0.50000000  0.50000000  0.00000000
   0.50000000  0.50000000  0.50000000
   0.00000000  0.50000000  0.00000000
   0.25000000  0.25000000  0.25000000
   0.00000000  0.00000000  0.00000000
   0.75000000  0.75000000  0.75000000
   0.00000000  0.00000000  0.50000000
 
 position of ions in cartesian coordinates  (Angst):
   3.29000000  0.00000000  0.00000000
   0.00000000  3.29000000  3.29000000
   4.93500000  4.93500000  1.64500000
   1.64500000  4.93500000  4.93500000
   3.29000000  0.00000000  3.29000000
   4.93500000  1.64500000  1.64500000
   1.64500000  4.93500000  1.64500000
   1.64500000  1.64500000  4.93500000
   4.93500000  1.64500000  4.93500000
   3.29000000  3.29000000  0.00000000
   3.29000000  3.29000000  3.29000000
   0.00000000  3.29000000  0.00000000
   1.64500000  1.64500000  1.64500000
   0.00000000  0.00000000  0.00000000
   4.93500000  4.93500000  4.93500000
   0.00000000  0.00000000  3.29000000
 


--------------------------------------------------------------------------------------------------------


 k-point   1 :   0.0000 0.0000 0.0000  plane waves:    2517
 k-point   2 :   0.2000 0.0000 0.0000  plane waves:    2545
 k-point   3 :   0.0000 0.2000 0.0000  plane waves:    2545
 k-point   4 :   0.0000 0.0000 0.2000  plane waves:    2545
 k-point   5 :   0.4000 0.0000 0.0000  plane waves:    2569
 k-point   6 :   0.0000 0.4000 0.0000  plane waves:    2569
 k-point   7 :   0.0000 0.0000 0.4000  plane waves:    2569
 k-point   8 :   0.2000 0.2000 0.0000  plane waves:    2562
 k-point   9 :   0.0000 0.2000 0.2000  plane waves:    2562
 k-point  10 :   0.2000 0.0000 0.2000  plane waves:    2562
 k-point  11 :  -0.2000 0.2000 0.0000  plane waves:    2562
 k-point  12 :  -0.2000 0.0000 0.2000  plane waves:    2562
 k-point  13 :   0.0000-0.2000 0.2000  plane waves:    2562
 k-point  14 :   0.4000 0.2000 0.0000  plane waves:    2566
 k-point  15 :   0.0000 0.4000 0.2000  plane waves:    2566
 k-point  16 :   0.2000 0.0000 0.4000  plane waves:    2566
 k-point  17 :  -0.2000 0.4000 0.0000  plane waves:    2566
 k-point  18 :  -0.4000 0.0000 0.2000  plane waves:    2566
 k-point  19 :   0.0000 0.2000 0.4000  plane waves:    2566
 k-point  20 :   0.0000-0.4000 0.2000  plane waves:    2566
 k-point  21 :  -0.2000 0.0000 0.4000  plane waves:    2566
 k-point  22 :   0.4000 0.0000 0.2000  plane waves:    2566
 k-point  23 :   0.0000-0.2000 0.4000  plane waves:    2566
 k-point  24 :   0.4000-0.2000 0.0000  plane waves:    2566
 k-point  25 :   0.2000 0.4000 0.0000  plane waves:    2566
 k-point  26 :   0.4000 0.4000 0.0000  plane waves:    2570
 k-point  27 :   0.0000 0.4000 0.4000  plane waves:    2570
 k-point  28 :   0.4000 0.0000 0.4000  plane waves:    2570
 k-point  29 :  -0.4000 0.4000 0.0000  plane waves:    2570
 k-point  30 :  -0.4000 0.0000 0.4000  plane waves:    2570
 k-point  31 :   0.0000-0.4000 0.4000  plane waves:    2570
 k-point  32 :   0.2000 0.2000 0.2000  plane waves:    2572
 k-point  33 :  -0.2000 0.2000 0.2000  plane waves:    2572
 k-point  34 :  -0.2000-0.2000 0.2000  plane waves:    2572
 k-point  35 :   0.2000-0.2000 0.2000  plane waves:    2572
 k-point  36 :   0.4000 0.2000 0.2000  plane waves:    2546
 k-point  37 :   0.2000 0.4000 0.2000  plane waves:    2546
 k-point  38 :   0.2000 0.2000 0.4000  plane waves:    2546
 k-point  39 :  -0.2000 0.4000 0.2000  plane waves:    2546
 k-point  40 :  -0.4000 0.2000 0.2000  plane waves:    2546
 k-point  41 :  -0.2000 0.2000 0.4000  plane waves:    2546
 k-point  42 :  -0.4000-0.2000 0.2000  plane waves:    2546
 k-point  43 :  -0.2000-0.4000 0.2000  plane waves:    2546
 k-point  44 :  -0.2000-0.2000 0.4000  plane waves:    2546
 k-point  45 :   0.2000-0.4000 0.2000  plane waves:    2546
 k-point  46 :   0.4000-0.2000 0.2000  plane waves:    2546
 k-point  47 :   0.2000-0.2000 0.4000  plane waves:    2546
 k-point  48 :   0.4000 0.4000 0.2000  plane waves:    2549
 k-point  49 :   0.2000 0.4000 0.4000  plane waves:    2549
 k-point  50 :   0.4000 0.2000 0.4000  plane waves:    2549
 k-point  51 :  -0.4000 0.4000 0.2000  plane waves:    2549
 k-point  52 :  -0.4000 0.2000 0.4000  plane waves:    2549
 k-point  53 :  -0.2000 0.4000 0.4000  plane waves:    2549
 k-point  54 :  -0.4000-0.4000 0.2000  plane waves:    2549
 k-point  55 :  -0.2000-0.4000 0.4000  plane waves:    2549
 k-point  56 :  -0.4000-0.2000 0.4000  plane waves:    2549
 k-point  57 :   0.4000-0.4000 0.2000  plane waves:    2549
 k-point  58 :   0.4000-0.2000 0.4000  plane waves:    2549
 k-point  59 :   0.2000-0.4000 0.4000  plane waves:    2549
 k-point  60 :   0.4000 0.4000 0.4000  plane waves:    2533
 k-point  61 :  -0.4000 0.4000 0.4000  plane waves:    2533
 k-point  62 :  -0.4000-0.4000 0.4000  plane waves:    2533
 k-point  63 :   0.4000-0.4000 0.4000  plane waves:    2533

 maximum and minimum number of plane-waves per node :       235      194

 maximum number of plane-waves:      2572
 maximum index in each direction: 
   IXMAX=    8   IYMAX=    8   IZMAX=    8
   IXMIN=   -8   IYMIN=   -8   IZMIN=   -8


 parallel 3D FFT for wavefunctions:
    minimum data exchange during FFTs selected (reduces bandwidth)
 parallel 3D FFT for charge:
    minimum data exchange during FFTs selected (reduces bandwidth)


 total amount of memory used by VASP MPI-rank0    48253. kBytes
=======================================================================

   base      :      30000. kBytes
   nonl-proj :       8332. kBytes
   fftplans  :        456. kBytes
   grid      :        919. kBytes
   one-center:         31. kBytes
   wavefun   :       8515. kBytes
 
     INWAV:  cpu time      0.0000: real time      0.0002
 Broyden mixing: mesh for mixing (old mesh)
   NGX = 17   NGY = 17   NGZ = 17
  (NGX  = 72   NGY  = 72   NGZ  = 72)
  gives a total of   4913 points

 initial charge density was supplied:
 charge density of overlapping atoms calculated
 number of electron     209.0000000 magnetization 
 keeping initial charge density in first step


--------------------------------------------------------------------------------------------------------


 Maximum index for augmentation-charges          517 (set IRDMAX)


--------------------------------------------------------------------------------------------------------


 First call to EWALD:  gamma=   0.269
 Maximum number of real-space cells 3x 3x 3
 Maximum number of reciprocal cells 3x 3x 3

    FEWALD:  cpu time      0.0012: real time      0.0012


--------------------------------------- Iteration      1(   1)  ---------------------------------------


    POTLOK:  cpu time      0.0054: real time      0.0122
    SETDIJ:  cpu time      0.0022: real time      0.0024
     EDDAV:  cpu time      9.3191: real time      9.4438
       DOS:  cpu time      0.0047: real time      0.0048
    --------------------------------------------
      LOOP:  cpu time      9.3314: real time      9.4633

 eigenvalue-minimisations  : 16504
 total energy-change (2. order) : 0.1889107E+04  (-0.8081883E+04)
 number of electron     209.0000000 magnetization 
 augmentation part      209.0000000 magnetization 

 Free energy of the ion-electron system (eV)
  ---------------------------------------------------
  alpha Z        PSCENC =      1726.18363193
  Ewald energy   TEWEN  =    -21797.84464285
  -Hartree energ DENC   =     -4102.30233142
  -exchange      EXHF   =         0.00000000
  -V(xc)+E(xc)   XCENC  =       849.38906031
  PAW double counting   =     20247.29442017   -19941.89724734
  entropy T*S    EENTRO =        -0.00194046
  eigenvalues    EBANDS =      -608.31197219
  atomic energy  EATOM  =     25516.59758136
  Solvation  Ediel_sol  =         0.00000000
  ---------------------------------------------------
  free energy    TOTEN  =      1889.10655951 eV

  energy without entropy =     1889.10849996  energy(sigma->0) =     1889.10752974


--------------------------------------------------------------------------------------------------------




--------------------------------------- Iteration      1(   2)  ---------------------------------------


     EDDAV:  cpu time      3.2279: real time      3.2416
       DOS:  cpu time      0.0049: real time      0.0049
    --------------------------------------------
      LOOP:  cpu time      3.2327: real time      3.2464

 eigenvalue-minimisations  : 16792
 total energy-change (2. order) :-0.1902130E+04  (-0.1837315E+04)
 number of electron     209.0000000 magnetization 
 augmentation part      209.0000000 magnetization 

 Free energy of the ion-electron system (eV)
  ---------------------------------------------------
  alpha Z        PSCENC =      1726.18363193
  Ewald energy   TEWEN  =    -21797.84464285
  -Hartree energ DENC   =     -4102.30233142
  -exchange      EXHF   =         0.00000000
  -V(xc)+E(xc)   XCENC  =       849.38906031
  PAW double counting   =     20247.29442017   -19941.89724734
  entropy T*S    EENTRO =        -0.00202988
  eigenvalues    EBANDS =     -2510.44179839
  atomic energy  EATOM  =     25516.59758136
  Solvation  Ediel_sol  =         0.00000000
  ---------------------------------------------------
  free energy    TOTEN  =       -13.02335612 eV

  energy without entropy =      -13.02132624  energy(sigma->0) =      -13.02234118


--------------------------------------------------------------------------------------------------------




--------------------------------------- Iteration      1(   3)  ---------------------------------------


     EDDAV:  cpu time      4.4949: real time      4.5139
       DOS:  cpu time      0.0043: real time      0.0043
    --------------------------------------------
      LOOP:  cpu time      4.4992: real time      4.5182

 eigenvalue-minimisations  : 25800
 total energy-change (2. order) :-0.1645811E+03  (-0.1555865E+03)
 number of electron     209.0000000 magnetization 
 augmentation part      209.0000000 magnetization 

 Free energy of the ion-electron system (eV)
  ---------------------------------------------------
  alpha Z        PSCENC =      1726.18363193
  Ewald energy   TEWEN  =    -21797.84464285
  -Hartree energ DENC   =     -4102.30233142
  -exchange      EXHF   =         0.00000000
  -V(xc)+E(xc)   XCENC  =       849.38906031
  PAW double counting   =     20247.29442017   -19941.89724734
  entropy T*S    EENTRO =        -0.00295910
  eigenvalues    EBANDS =     -2675.02195507
  atomic energy  EATOM  =     25516.59758136
  Solvation  Ediel_sol  =         0.00000000
  ---------------------------------------------------
  free energy    TOTEN  =      -177.60444202 eV

  energy without entropy =     -177.60148292  energy(sigma->0) =     -177.60296247


--------------------------------------------------------------------------------------------------------




--------------------------------------- Iteration      1(   4)  ---------------------------------------


     EDDAV:  cpu time      4.3986: real time      4.4167
       DOS:  cpu time      0.0048: real time      0.0048
    --------------------------------------------
      LOOP:  cpu time      4.4034: real time      4.4216

 eigenvalue-minimisations  : 25448
 total energy-change (2. order) :-0.1109756E+02  (-0.1082082E+02)
 number of electron     209.0000000 magnetization 
 augmentation part      209.0000000 magnetization 

 Free energy of the ion-electron system (eV)
  ---------------------------------------------------
  alpha Z        PSCENC =      1726.18363193
  Ewald energy   TEWEN  =    -21797.84464285
  -Hartree energ DENC   =     -4102.30233142
  -exchange      EXHF   =         0.00000000
  -V(xc)+E(xc)   XCENC  =       849.38906031
  PAW double counting   =     20247.29442017   -19941.89724734
  entropy T*S    EENTRO =        -0.00296909
  eigenvalues    EBANDS =     -2686.11950939
  atomic energy  EATOM  =     25516.59758136
  Solvation  Ediel_sol  =         0.00000000
  ---------------------------------------------------
  free energy    TOTEN  =      -188.70200632 eV

  energy without entropy =     -188.69903723  energy(sigma->0) =     -188.70052178


--------------------------------------------------------------------------------------------------------




--------------------------------------- Iteration      1(   5)  ---------------------------------------


     EDDAV:  cpu time      4.3087: real time      4.3283
       DOS:  cpu time      0.0047: real time      0.0048
    CHARGE:  cpu time      0.0857: real time      0.0860
    MIXING:  cpu time      0.0002: real time      0.0002
    --------------------------------------------
      LOOP:  cpu time      4.3994: real time      4.4193

 eigenvalue-minimisations  : 24920
 total energy-change (2. order) :-0.6106565E+00  (-0.6065021E+00)
 number of electron     208.9999806 magnetization 
 augmentation part       38.2458540 magnetization 

 Broyden mixing:
  rms(total) = 0.49627E+01    rms(broyden)= 0.49615E+01
  rms(prec ) = 0.55132E+01
  weight for this iteration     100.00

 Free energy of the ion-electron system (eV)
  ---------------------------------------------------
  alpha Z        PSCENC =      1726.18363193
  Ewald energy   TEWEN  =    -21797.84464285
  -Hartree energ DENC   =     -4102.30233142
  -exchange      EXHF   =         0.00000000
  -V(xc)+E(xc)   XCENC  =       849.38906031
  PAW double counting   =     20247.29442017   -19941.89724734
  entropy T*S    EENTRO =        -0.00298959
  eigenvalues    EBANDS =     -2686.73014538
  atomic energy  EATOM  =     25516.59758136
  Solvation  Ediel_sol  =         0.00000000
  ---------------------------------------------------
  free energy    TOTEN  =      -189.31266281 eV

  energy without entropy =     -189.30967322  energy(sigma->0) =     -189.31116802


--------------------------------------------------------------------------------------------------------




--------------------------------------- Iteration      1(   6)  ---------------------------------------


    POTLOK:  cpu time      0.0049: real time      0.0050
    SETDIJ:  cpu time      0.0018: real time      0.0018
     EDDAV:  cpu time      3.5240: real time      3.5386
       DOS:  cpu time      0.0048: real time      0.0048
    CHARGE:  cpu time      0.0857: real time      0.0860
    MIXING:  cpu time      0.0003: real time      0.0003
    --------------------------------------------
      LOOP:  cpu time      3.6215: real time      3.6365

 eigenvalue-minimisations  : 19000
 total energy-change (2. order) : 0.7369196E+01  (-0.2078526E+01)
 number of electron     208.9999794 magnetization 
 augmentation part       39.9703357 magnetization 

 Broyden mixing:
  rms(total) = 0.18150E+01    rms(broyden)= 0.18146E+01
  rms(prec ) = 0.22956E+01
  weight for this iteration     100.00

 eigenvalues of (default mixing * dielectric matrix)
  average eigenvalue GAMMA=   1.4042
  1.4042

 Free energy of the ion-electron system (eV)
  ---------------------------------------------------
  alpha Z        PSCENC =      1726.18363193
  Ewald energy   TEWEN  =    -21797.84464285
  -Hartree energ DENC   =     -3880.38273184
  -exchange      EXHF   =         0.00000000
  -V(xc)+E(xc)   XCENC  =       838.31072264
  PAW double counting   =     23614.92227866   -23333.01435770
  entropy T*S    EENTRO =        -0.00272379
  eigenvalues    EBANDS =     -2866.71322565
  atomic energy  EATOM  =     25516.59758136
  Solvation  Ediel_sol  =         0.00000000
  ---------------------------------------------------
  free energy    TOTEN  =      -181.94346723 eV

  energy without entropy =     -181.94074344  energy(sigma->0) =     -181.94210534


--------------------------------------------------------------------------------------------------------




--------------------------------------- Iteration      1(   7)  ---------------------------------------


    POTLOK:  cpu time      0.0045: real time      0.0046
    SETDIJ:  cpu time      0.0017: real time      0.0018
     EDDAV:  cpu time      4.1447: real time      4.1618
       DOS:  cpu time      0.0048: real time      0.0048
    CHARGE:  cpu time      0.0855: real time      0.0858
    MIXING:  cpu time      0.0003: real time      0.0003
    --------------------------------------------
      LOOP:  cpu time      4.2416: real time      4.2591

 eigenvalue-minimisations  : 23560
 total energy-change (2. order) :-0.9187050E-01  (-0.1506298E+01)
 number of electron     208.9999801 magnetization 
 augmentation part       39.6907391 magnetization 

 Broyden mixing:
  rms(total) = 0.10492E+01    rms(broyden)= 0.10489E+01
  rms(prec ) = 0.23322E+01
  weight for this iteration     100.00

 eigenvalues of (default mixing * dielectric matrix)
  average eigenvalue GAMMA=   1.0732
  1.5888  0.5576

 Free energy of the ion-electron system (eV)
  ---------------------------------------------------
  alpha Z        PSCENC =      1726.18363193
  Ewald energy   TEWEN  =    -21797.84464285
  -Hartree energ DENC   =     -3816.74835606
  -exchange      EXHF   =         0.00000000
  -V(xc)+E(xc)   XCENC  =       834.56895738
  PAW double counting   =     25636.42457494   -25361.33840384
  entropy T*S    EENTRO =        -0.00271528
  eigenvalues    EBANDS =     -2919.87596532
  atomic energy  EATOM  =     25516.59758136
  Solvation  Ediel_sol  =         0.00000000
  ---------------------------------------------------
  free energy    TOTEN  =      -182.03533773 eV

  energy without entropy =     -182.03262245  energy(sigma->0) =     -182.03398009


--------------------------------------------------------------------------------------------------------




--------------------------------------- Iteration      1(   8)  ---------------------------------------


    POTLOK:  cpu time      0.0045: real time      0.0047
    SETDIJ:  cpu time      0.0018: real time      0.0018
     EDDAV:  cpu time      3.7818: real time      3.7973
       DOS:  cpu time      0.0047: real time      0.0048
    CHARGE:  cpu time      0.0852: real time      0.0855
    MIXING:  cpu time      0.0003: real time      0.0003
    --------------------------------------------
      LOOP:  cpu time      3.8783: real time      3.8942

 eigenvalue-minimisations  : 21040
 total energy-change (2. order) : 0.1962993E+01  (-0.7388937E+00)
 number of electron     208.9999797 magnetization 
 augmentation part       40.1613983 magnetization 

 Broyden mixing:
  rms(total) = 0.42309E+00    rms(broyden)= 0.42243E+00
  rms(prec ) = 0.72158E+00
  weight for this iteration     100.00

 eigenvalues of (default mixing * dielectric matrix)
  average eigenvalue GAMMA=   1.0053
  1.6346  0.9737  0.4076

 Free energy of the ion-electron system (eV)
  ---------------------------------------------------
  alpha Z        PSCENC =      1726.18363193
  Ewald energy   TEWEN  =    -21797.84464285
  -Hartree energ DENC   =     -3776.05503606
  -exchange      EXHF   =         0.00000000
  -V(xc)+E(xc)   XCENC  =       832.75158681
  PAW double counting   =     26370.57981869   -26099.30949513
  entropy T*S    EENTRO =        -0.00299952
  eigenvalues    EBANDS =     -2952.97279023
  atomic energy  EATOM  =     25516.59758136
  Solvation  Ediel_sol  =         0.00000000
  ---------------------------------------------------
  free energy    TOTEN  =      -180.07234500 eV

  energy without entropy =     -180.06934548  energy(sigma->0) =     -180.07084524


--------------------------------------------------------------------------------------------------------




--------------------------------------- Iteration      1(   9)  ---------------------------------------


    POTLOK:  cpu time      0.0045: real time      0.0047
    SETDIJ:  cpu time      0.0018: real time      0.0018
     EDDAV:  cpu time      3.9666: real time      3.9832
       DOS:  cpu time      0.0049: real time      0.0049
    CHARGE:  cpu time      0.0896: real time      0.0900
    MIXING:  cpu time      0.0003: real time      0.0003
    --------------------------------------------
      LOOP:  cpu time      4.0676: real time      4.0849

 eigenvalue-minimisations  : 22304
 total energy-change (2. order) : 0.1115536E-01  (-0.1491275E+00)
 number of electron     208.9999798 magnetization 
 augmentation part       40.1697130 magnetization 

 Broyden mixing:
  rms(total) = 0.32419E+00    rms(broyden)= 0.32410E+00
  rms(prec ) = 0.47564E+00
  weight for this iteration     100.00

 eigenvalues of (default mixing * dielectric matrix)
  average eigenvalue GAMMA=   1.1247
  2.0316  1.6051  0.5142  0.3480

 Free energy of the ion-electron system (eV)
  ---------------------------------------------------
  alpha Z        PSCENC =      1726.18363193
  Ewald energy   TEWEN  =    -21797.84464285
  -Hartree energ DENC   =     -3773.27582185
  -exchange      EXHF   =         0.00000000
  -V(xc)+E(xc)   XCENC  =       832.63158897
  PAW double counting   =     26551.40804256   -26279.26737014
  entropy T*S    EENTRO =        -0.00352516
  eigenvalues    EBANDS =     -2956.49067446
  atomic energy  EATOM  =     25516.59758136
  Solvation  Ediel_sol  =         0.00000000
  ---------------------------------------------------
  free energy    TOTEN  =      -180.06118964 eV

  energy without entropy =     -180.05766447  energy(sigma->0) =     -180.05942706


--------------------------------------------------------------------------------------------------------




--------------------------------------- Iteration      1(  10)  ---------------------------------------


    POTLOK:  cpu time      0.0045: real time      0.0047
    SETDIJ:  cpu time      0.0017: real time      0.0017
     EDDAV:  cpu time      3.9756: real time      3.9929
       DOS:  cpu time      0.0044: real time      0.0044
    CHARGE:  cpu time      0.0841: real time      0.0843
    MIXING:  cpu time      0.0003: real time      0.0003
    --------------------------------------------
      LOOP:  cpu time      4.0705: real time      4.0884

 eigenvalue-minimisations  : 21576
 total energy-change (2. order) : 0.2940666E-01  (-0.3350533E-01)
 number of electron     208.9999799 magnetization 
 augmentation part       40.0990300 magnetization 

 Broyden mixing:
  rms(total) = 0.13512E+00    rms(broyden)= 0.13505E+00
  rms(prec ) = 0.24091E+00
  weight for this iteration     100.00

 eigenvalues of (default mixing * dielectric matrix)
  average eigenvalue GAMMA=   1.1514
  2.5348  1.6326  0.8252  0.4257  0.3389

 Free energy of the ion-electron system (eV)
  ---------------------------------------------------
  alpha Z        PSCENC =      1726.18363193
  Ewald energy   TEWEN  =    -21797.84464285
  -Hartree energ DENC   =     -3775.97044082
  -exchange      EXHF   =         0.00000000
  -V(xc)+E(xc)   XCENC  =       832.72081207
  PAW double counting   =     26791.56106257   -26516.51033416
  entropy T*S    EENTRO =        -0.00341445
  eigenvalues    EBANDS =     -2956.76603862
  atomic energy  EATOM  =     25516.59758136
  Solvation  Ediel_sol  =         0.00000000
  ---------------------------------------------------
  free energy    TOTEN  =      -180.03178297 eV

  energy without entropy =     -180.02836852  energy(sigma->0) =     -180.03007575


--------------------------------------------------------------------------------------------------------




--------------------------------------- Iteration      1(  11)  ---------------------------------------


    POTLOK:  cpu time      0.0046: real time      0.0048
    SETDIJ:  cpu time      0.0017: real time      0.0017
     EDDAV:  cpu time      3.8947: real time      3.9111
       DOS:  cpu time      0.0049: real time      0.0050
    CHARGE:  cpu time      0.0840: real time      0.0843
    MIXING:  cpu time      0.0003: real time      0.0003
    --------------------------------------------
      LOOP:  cpu time      3.9902: real time      4.0071

 eigenvalue-minimisations  : 21728
 total energy-change (2. order) : 0.3934122E-02  (-0.1265198E-01)
 number of electron     208.9999799 magnetization 
 augmentation part       40.0705448 magnetization 

 Broyden mixing:
  rms(total) = 0.52506E-01    rms(broyden)= 0.52386E-01
  rms(prec ) = 0.14583E+00
  weight for this iteration     100.00

 eigenvalues of (default mixing * dielectric matrix)
  average eigenvalue GAMMA=   1.0495
  2.5555  1.6319  0.8654  0.4689  0.4461  0.3295

 Free energy of the ion-electron system (eV)
  ---------------------------------------------------
  alpha Z        PSCENC =      1726.18363193
  Ewald energy   TEWEN  =    -21797.84464285
  -Hartree energ DENC   =     -3777.93370495
  -exchange      EXHF   =         0.00000000
  -V(xc)+E(xc)   XCENC  =       832.79709134
  PAW double counting   =     26918.90729637   -26641.81229641
  entropy T*S    EENTRO =        -0.00352739
  eigenvalues    EBANDS =     -2956.91927826
  atomic energy  EATOM  =     25516.59758136
  Solvation  Ediel_sol  =         0.00000000
  ---------------------------------------------------
  free energy    TOTEN  =      -180.02784885 eV

  energy without entropy =     -180.02432147  energy(sigma->0) =     -180.02608516


--------------------------------------------------------------------------------------------------------




--------------------------------------- Iteration      1(  12)  ---------------------------------------


    POTLOK:  cpu time      0.0040: real time      0.0041
    SETDIJ:  cpu time      0.0017: real time      0.0017
     EDDAV:  cpu time      3.7472: real time      3.7625
       DOS:  cpu time      0.0045: real time      0.0046
    CHARGE:  cpu time      0.0865: real time      0.0868
    MIXING:  cpu time      0.0004: real time      0.0004
    --------------------------------------------
      LOOP:  cpu time      3.8443: real time      3.8601

 eigenvalue-minimisations  : 21128
 total energy-change (2. order) : 0.6583340E-02  (-0.3604947E-02)
 number of electron     208.9999799 magnetization 
[...]
     33     -24.8067      2.00000
     34     -24.7214      2.00000
     35     -24.3443      2.00000
     36     -24.2695      2.00000
     37     -24.1779      2.00000
     38     -24.1541      2.00000
     39     -24.1050      2.00000
     40     -24.0680      2.00000
     41     -24.0423      2.00000
     42     -23.9364      2.00000
     43     -23.8641      2.00000
     44     -21.1848      2.00000
     45     -21.1300      2.00000
     46     -21.0616      2.00000
     47     -20.9942      2.00000
     48     -20.9531      2.00000
     49     -20.8017      2.00000
     50     -20.7933      2.00000
     51     -20.7743      2.00000
     52     -20.7489      2.00000
     53     -20.7250      2.00000
     54     -20.7158      2.00000
     55     -20.6802      2.00000
     56     -20.6626      2.00000
     57     -20.5405      2.00000
     58     -20.5114      2.00000
     59     -20.4413      2.00000
     60     -20.3804      2.00000
     61     -20.3564      2.00000
     62       4.5640      2.00000
     63       4.8902      2.00000
     64       5.3802      2.00000
     65       5.6391      2.00000
     66       5.7970      2.00000
     67       6.0706      2.00000
     68       6.3486      2.00000
     69       6.7773      2.00000
     70       6.9710      2.00000
     71       7.0036      2.00000
     72       7.0723      2.00000
     73       7.1222      2.00000
     74       7.1628      2.00000
     75       7.2128      2.00000
     76       7.2382      2.00000
     77       7.2838      2.00000
     78       7.3530      2.00000
     79       7.3995      2.00000
     80       7.4482      2.00000
     81       7.4826      2.00000
     82       7.7527      2.00000
     83       7.7902      2.00000
     84       7.8291      2.00000
     85       7.9040      2.00000
     86       7.9441      2.00000
     87       7.9674      2.00000
     88       7.9983      2.00000
     89       8.0408      2.00000
     90       8.0632      2.00000
     91       8.1035      2.00000
     92       8.1146      2.00000
     93       8.1520      2.00000
     94       8.1664      2.00000
     95       8.2264      2.00000
     96       8.2382      2.00000
     97       8.2858      2.00000
     98       8.3344      2.00000
     99       8.3593      2.00000
    100       8.3957      2.00000
    101       8.4301      2.00000
    102       8.4443      2.00000
    103       8.5297      2.00000
    104       8.5634      2.00000
    105       8.5956      2.00000
    106       8.6318      2.00000
    107       8.6639      2.00000
    108       8.6958      2.00000
    109       9.1066      2.00000
    110      11.6583      0.00000
    111      11.7369      0.00000
    112      11.8303      0.00000
    113      11.9081      0.00000
    114      11.9506      0.00000
    115      12.0302      0.00000
    116      12.1081      0.00000
    117      12.1429      0.00000
    118      12.1811      0.00000
    119      12.2813      0.00000
    120      12.3426      0.00000
    121      12.4526      0.00000
    122      12.4805      0.00000
    123      12.5613      0.00000
    124      12.6131      0.00000
    125      12.6622      0.00000
    126      12.7330      0.00000
    127      12.8153      0.00000
    128      12.8949      0.00000

 k-point    63 :       0.4000   -0.4000    0.4000
  band No.  band energies     occupation 
      1     -63.9361      2.00000
      2     -63.9283      2.00000
      3     -63.8153      2.00000
      4     -50.8943      2.00000
      5     -50.8222      2.00000
      6     -50.7916      2.00000
      7     -50.7781      2.00000
      8     -44.7255      2.00000
      9     -44.7062      2.00000
     10     -44.6790      2.00000
     11     -44.6103      2.00000
     12     -44.5933      2.00000
     13     -44.5648      2.00000
     14     -28.2707      2.00000
     15     -28.2083      2.00000
     16     -28.1758      2.00000
     17     -28.1509      2.00000
     18     -28.1365      2.00000
     19     -28.1229      2.00000
     20     -28.0277      2.00000
     21     -27.9435      2.00000
     22     -27.9097      2.00000
     23     -25.1975      2.00000
     24     -25.1118      2.00000
     25     -25.0113      2.00000
     26     -24.9963      2.00000
     27     -24.9821      2.00000
     28     -24.9471      2.00000
     29     -24.9261      2.00000
     30     -24.9188      2.00000
     31     -24.8987      2.00000
     32     -24.8869      2.00000
     33     -24.8068      2.00000
     34     -24.7221      2.00000
     35     -24.3445      2.00000
     36     -24.2688      2.00000
     37     -24.1771      2.00000
     38     -24.1522      2.00000
     39     -24.1017      2.00000
     40     -24.0683      2.00000
     41     -24.0467      2.00000
     42     -23.9356      2.00000
     43     -23.8651      2.00000
     44     -21.1758      2.00000
     45     -21.1450      2.00000
     46     -21.0525      2.00000
     47     -20.9994      2.00000
     48     -20.9538      2.00000
     49     -20.8042      2.00000
     50     -20.7945      2.00000
     51     -20.7777      2.00000
     52     -20.7488      2.00000
     53     -20.7242      2.00000
     54     -20.7083      2.00000
     55     -20.6743      2.00000
     56     -20.6624      2.00000
     57     -20.5413      2.00000
     58     -20.5105      2.00000
     59     -20.4367      2.00000
     60     -20.3958      2.00000
     61     -20.3501      2.00000
     62       4.5436      2.00000
     63       4.9477      2.00000
     64       5.3437      2.00000
     65       5.5909      2.00000
     66       5.8882      2.00000
     67       6.0218      2.00000
     68       6.3354      2.00000
     69       6.7914      2.00000
     70       6.9418      2.00000
     71       6.9972      2.00000
     72       7.0850      2.00000
     73       7.1168      2.00000
     74       7.1848      2.00000
     75       7.2228      2.00000
     76       7.2592      2.00000
     77       7.3059      2.00000
     78       7.3523      2.00000
     79       7.3759      2.00000
     80       7.4350      2.00000
     81       7.4757      2.00000
     82       7.7380      2.00000
     83       7.7711      2.00000
     84       7.8170      2.00000
     85       7.9117      2.00000
     86       7.9554      2.00000
     87       7.9689      2.00000
     88       8.0195      2.00000
     89       8.0306      2.00000
     90       8.0780      2.00000
     91       8.1018      2.00000
     92       8.1186      2.00000
     93       8.1728      2.00000
     94       8.2027      2.00000
     95       8.2133      2.00000
     96       8.2519      2.00000
     97       8.2861      2.00000
     98       8.3284      2.00000
     99       8.3578      2.00000
    100       8.3718      2.00000
    101       8.3878      2.00000
    102       8.4479      2.00000
    103       8.5243      2.00000
    104       8.5594      2.00000
    105       8.6098      2.00000
    106       8.6474      2.00000
    107       8.6557      2.00000
    108       8.7231      2.00000
    109       9.0789      2.00000
    110      11.6654      0.00000
    111      11.7515      0.00000
    112      11.8497      0.00000
    113      11.8884      0.00000
    114      11.9559      0.00000
    115      12.0280      0.00000
    116      12.0724      0.00000
    117      12.1307      0.00000
    118      12.2175      0.00000
    119      12.2552      0.00000
    120      12.3641      0.00000
    121      12.4318      0.00000
    122      12.5114      0.00000
    123      12.5532      0.00000
    124      12.6119      0.00000
    125      12.6558      0.00000
    126      12.7419      0.00000
    127      12.8038      0.00000
    128      12.8571      0.00000


--------------------------------------------------------------------------------------------------------


 soft charge-density along one line, spin component           1
         0         1         2         3         4         5         6         7         8         9
 total charge-density along one line
 
 pseudopotential strength for first ion, spin component:           1
  5.762 -20.258  -0.000  -0.002  -0.000   0.000   0.004   0.000
-20.258   9.177  -0.000  -0.003  -0.000   0.000   0.000   0.000
 -0.000  -0.000  -9.736   0.004  -0.002   5.968  -0.005   0.002
 -0.002  -0.003   0.004  -9.735   0.000  -0.005   5.968  -0.000
 -0.000  -0.000  -0.002   0.000  -9.739   0.002  -0.000   5.972
  0.000   0.000   5.968  -0.005   0.002   7.964   0.003  -0.001
  0.004   0.000  -0.005   5.968  -0.000   0.003   7.964   0.000
  0.000   0.000   0.002  -0.000   5.972  -0.001   0.000   7.962
 -0.001  -0.001  -0.000   0.000  -0.000   0.000  -0.001   0.000
  0.003   0.001  -0.002  -0.000   0.000   0.003   0.000  -0.001
  0.001   0.000   0.000  -0.002   0.000  -0.000   0.002  -0.000
  0.000   0.000   0.000  -0.000  -0.002  -0.001   0.000   0.003
 -0.001  -0.001   0.000  -0.000  -0.000  -0.000  -0.000   0.000
 -0.002  -0.001  -0.000   0.000  -0.000   0.000  -0.001   0.000
  0.004   0.002  -0.002  -0.000   0.000   0.003   0.000  -0.001
  0.001   0.000   0.000  -0.002   0.000  -0.000   0.003  -0.000
  0.000   0.000   0.000  -0.000  -0.002  -0.001   0.000   0.003
 -0.001  -0.001   0.000  -0.000  -0.000  -0.000  -0.000   0.000
 total augmentation occupancy for first ion, spin component:           1
  1.995  -0.047   0.000   0.000  -0.000  -0.000   0.000  -0.000  -0.002   0.010   0.003   0.007  -0.001   0.002  -0.009  -0.003
 -0.047   1.320   0.000   0.001  -0.000  -0.001   0.003   0.000  -0.019   0.033   0.038  -0.010  -0.005   0.016  -0.013  -0.017
  0.000   0.000   1.996  -0.000  -0.000  -0.030   0.001   0.000  -0.001   0.007   0.000  -0.008   0.000   0.001  -0.004  -0.000
  0.000   0.001  -0.000   1.996  -0.000   0.001  -0.030   0.001  -0.008  -0.001  -0.002  -0.001  -0.000   0.005   0.001   0.001
 -0.000  -0.000  -0.000  -0.000   1.996   0.000   0.001  -0.030  -0.001  -0.008   0.001   0.007  -0.001   0.001   0.005  -0.000
 -0.000  -0.001  -0.030   0.001   0.000   0.066  -0.001  -0.001   0.000  -0.002   0.000   0.009   0.000   0.000   0.002  -0.000
  0.000   0.003   0.001  -0.030   0.001  -0.001   0.066  -0.002   0.009   0.001   0.009   0.001   0.000  -0.005  -0.001  -0.004
 -0.000   0.000   0.000   0.001  -0.030  -0.001  -0.002   0.066   0.000   0.009  -0.000  -0.002   0.001  -0.000  -0.005   0.000
 -0.002  -0.019  -0.001  -0.008  -0.001   0.000   0.009   0.000   3.243  -0.094   0.017   0.062  -0.002  -1.342   0.064  -0.009
  0.010   0.033   0.007  -0.001  -0.008  -0.002   0.001   0.009  -0.094   3.257   0.038  -0.077  -0.061   0.064  -1.351  -0.018
  0.003   0.038   0.000  -0.002   0.001   0.000   0.009  -0.000   0.017   0.038   2.677   0.023   0.009  -0.008  -0.017  -1.206
  0.007  -0.010  -0.008  -0.001   0.007   0.009   0.001  -0.002   0.062  -0.077   0.023   3.249   0.035  -0.019   0.042  -0.009
 -0.001  -0.005   0.000  -0.000  -0.001   0.000   0.000   0.001  -0.002  -0.061   0.009   0.035   2.577  -0.000   0.027  -0.000
  0.002   0.016   0.001   0.005   0.001   0.000  -0.005  -0.000  -1.342   0.064  -0.008  -0.019  -0.000   0.567  -0.037   0.004
 -0.009  -0.013  -0.004   0.001   0.005   0.002  -0.001  -0.005   0.064  -1.351  -0.017   0.042   0.027  -0.037   0.572   0.008
 -0.003  -0.017  -0.000   0.001  -0.000  -0.000  -0.004   0.000  -0.009  -0.018  -1.206  -0.009  -0.000   0.004   0.008   0.551
 -0.005   0.019   0.005   0.001  -0.004  -0.005   0.000   0.002  -0.019   0.042  -0.008  -1.350  -0.015   0.006  -0.022   0.003
  0.001  -0.001  -0.000   0.000   0.001  -0.000  -0.000  -0.000   0.000   0.029  -0.000  -0.015  -1.165   0.000  -0.013  -0.002


------------------------ aborting loop because EDIFF is reached ----------------------------------------


    CHARGE:  cpu time      0.0814: real time      0.0817
    FORLOC:  cpu time      0.0005: real time      0.0005
    FORNL :  cpu time      0.8281: real time      0.8307
    STRESS:  cpu time      1.0212: real time      1.0250
    FORCOR:  cpu time      0.0042: real time      0.0042
    FORHAR:  cpu time      0.0013: real time      0.0013
    MIXING:  cpu time      0.0008: real time      0.0008
    OFIELD:  cpu time      0.0000: real time      0.0000

  FORCE on cell =-STRESS in cart. coord.  units (eV):
  Direction    XX          YY          ZZ          XY          YZ          ZX
  --------------------------------------------------------------------------------------
  Alpha Z  1726.18363  1726.18363  1726.18363
  Ewald   -7251.88123 -7277.64578 -7268.38690    -6.32305     4.21537    -0.00000
  Hartree  1273.71388  1248.72067  1255.78249    -6.45657     4.46059     0.29230
  E(xc)    -960.91001  -960.87917  -960.87335     0.01381    -0.01137    -0.00463
  Local    1579.27572  1630.17220  1613.82463    12.65226    -8.26313    -0.83821
  n-local  -324.96881  -326.69326  -326.89671    -0.32364    -0.86899     0.46814
  augment   510.90880   510.95175   510.88832     0.11730    -0.03840     0.18738
  Kinetic  3423.36890  3424.63369  3425.07943    -0.09724     0.85699    -0.37225
  Fock        0.00000     0.00000     0.00000     0.00000     0.00000     0.00000
  -------------------------------------------------------------------------------------
  Total     -24.30910   -24.55625   -24.39846    -0.41713     0.35106    -0.26728
  in kB    -136.71049  -138.10042  -137.21301    -2.34585     1.97431    -1.50313
  external pressure =     -137.34 kB  Pullay stress =        0.00 kB


 VOLUME and BASIS-vectors are now :
 -----------------------------------------------------------------------------
  energy-cutoff  :      250.00
  volume of cell :      284.89
      direct lattice vectors                 reciprocal lattice vectors
     6.580000000  0.000000000  0.000000000     0.151975684  0.000000000  0.000000000
     0.000000000  6.580000000  0.000000000     0.000000000  0.151975684  0.000000000
     0.000000000  0.000000000  6.580000000     0.000000000  0.000000000  0.151975684

  length of vectors
     6.580000000  6.580000000  6.580000000     0.151975684  0.151975684  0.151975684


 FORCES acting on ions
    electron-ion (+dipol)            ewald-force                    non-local-force                 convergence-correction
 -----------------------------------------------------------------------------------------------
   0.204E+02 -.204E+02 -.413E+02   -.204E+02 0.204E+02 0.408E+02   -.665E-02 0.158E-01 0.590E-01   -.787E-04 -.118E-03 -.784E-04
   -.204E+02 0.204E+02 0.412E+02   0.204E+02 -.204E+02 -.408E+02   0.136E-01 -.145E-01 -.212E-01   0.707E-04 0.124E-03 0.729E-04
   0.105E+02 0.513E+02 -.104E+02   -.102E+02 -.510E+02 0.102E+02   -.154E+00 -.354E-01 0.345E-01   -.102E-03 -.812E-04 0.842E-04
   -.105E+02 0.513E+02 0.105E+02   0.102E+02 -.510E+02 -.102E+02   0.169E+00 -.474E-01 -.437E-01   0.753E-04 -.581E-04 -.846E-04
   0.204E+02 -.204E+02 0.413E+02   -.204E+02 0.204E+02 -.408E+02   -.117E-01 0.136E-01 -.245E-01   -.649E-04 -.145E-03 0.722E-04
   0.105E+02 -.513E+02 -.104E+02   -.102E+02 0.510E+02 0.102E+02   -.139E+00 0.151E-01 0.158E-01   -.102E-03 0.915E-04 0.796E-04
   -.113E+02 0.551E+02 -.111E+02   0.110E+02 -.549E+02 0.110E+02   0.672E-01 0.320E-02 -.654E-01   0.102E-03 -.719E-04 0.105E-03
   -.113E+02 -.551E+02 0.111E+02   0.110E+02 0.549E+02 -.110E+02   0.922E-01 0.307E-02 0.485E-01   0.790E-04 0.679E-04 -.788E-04
   0.113E+02 -.552E+02 0.111E+02   -.110E+02 0.549E+02 -.110E+02   -.129E+00 0.564E-01 0.173E-01   -.847E-04 0.700E-04 -.796E-04
   0.220E+02 0.220E+02 -.442E+02   -.220E+02 -.220E+02 0.439E+02   -.359E-01 -.195E-01 -.381E-01   -.445E-04 0.119E-03 -.429E-04
   0.173E+02 0.172E+02 0.351E+02   -.173E+02 -.173E+02 -.345E+02   -.358E-01 0.221E-01 -.559E-01   -.652E-04 0.137E-03 0.548E-04
   -.173E+02 0.172E+02 -.351E+02   0.173E+02 -.173E+02 0.345E+02   0.449E-01 0.197E-01 0.456E-01   0.443E-04 0.120E-03 -.789E-04
   -.892E+01 -.435E+02 -.887E+01   0.863E+01 0.431E+02 0.863E+01   0.838E-01 0.382E-01 -.240E-01   0.844E-04 0.454E-04 0.454E-04
   -.220E+02 -.220E+02 -.443E+02   0.220E+02 0.220E+02 0.439E+02   0.337E-01 -.235E-02 -.394E-01   0.727E-04 -.149E-03 -.102E-03
   0.112E+02 0.551E+02 0.111E+02   -.110E+02 -.549E+02 -.110E+02   0.215E-01 0.193E-01 0.765E-01   -.741E-04 -.617E-04 -.749E-04
   -.220E+02 -.220E+02 0.443E+02   0.220E+02 0.220E+02 -.439E+02   0.401E-01 -.856E-02 0.810E-02   0.650E-04 -.148E-03 0.878E-04
 -----------------------------------------------------------------------------------------------
   -.537E-01 -.788E-01 0.683E-02   0.426E-13 -.142E-13 -.142E-13   0.537E-01 0.788E-01 -.682E-02   -.228E-04 -.592E-04 -.175E-04
 
 
 POSITION                                       TOTAL-FORCE (eV/Angst)
 -----------------------------------------------------------------------------------
      3.29000      0.00000      0.00000         0.021900     -0.029707     -0.458054
      0.00000      3.29000      3.29000        -0.028712      0.034324      0.419123
      4.93500      4.93500      1.64500         0.140756      0.246611     -0.196923
      1.64500      4.93500      4.93500        -0.123226      0.268648      0.226408
      3.29000      0.00000      3.29000         0.029997     -0.025728      0.448824
      4.93500      1.64500      1.64500         0.160761     -0.274897     -0.211109
      1.64500      4.93500      1.64500        -0.210611      0.187128     -0.156236
      1.64500      1.64500      4.93500        -0.196561     -0.201939      0.164121
      4.93500      1.64500      4.93500         0.177504     -0.184255      0.178365
      3.29000      3.29000      0.00000         0.009535      0.024002     -0.336575
      3.29000      3.29000      3.29000         0.003348      0.012332      0.508309
      0.00000      3.29000      0.00000        -0.010193      0.005219     -0.527752
      1.64500      1.64500      1.64500        -0.210293     -0.269727     -0.261155
      0.00000      0.00000      0.00000        -0.015691     -0.016407     -0.416622
      4.93500      4.93500      4.93500         0.251870      0.244820      0.215629
      0.00000      0.00000      3.29000        -0.000385     -0.020425      0.403646
 -----------------------------------------------------------------------------------
    total drift:                               -0.000009     -0.000024     -0.000008


--------------------------------------------------------------------------------------------------------



  FREE ENERGIE OF THE ION-ELECTRON SYSTEM (eV)
  ---------------------------------------------------
  free  energy   TOTEN  =      -180.02021550 eV

  energy  without entropy=     -180.01654851  energy(sigma->0) =     -180.01838201
 


--------------------------------------------------------------------------------------------------------


    POTLOK:  cpu time      0.0058: real time      0.0179


--------------------------------------------------------------------------------------------------------


     LOOP+:  cpu time    100.2985: real time    100.8735
    4ORBIT:  cpu time      0.0000: real time      0.0000

 total amount of memory used by VASP MPI-rank0    48253. kBytes
=======================================================================

   base      :      30000. kBytes
   nonl-proj :       8332. kBytes
   fftplans  :        456. kBytes
   grid      :        919. kBytes
   one-center:         31. kBytes
   wavefun   :       8515. kBytes
 
  
  
 General timing and accounting informations for this job:
 ========================================================
  
                  Total CPU time used (sec):      104.095
                            User time (sec):      102.637
                          System time (sec):        1.458
                         Elapsed time (sec):      106.207
  
                   Maximum memory used (kb):       90600.
                   Average memory used (kb):          N/A
  
                          Minor page faults:        10302
                          Major page faults:            0
                 Voluntary context switches:          275
