 vasp.6.3.1 04May22 (build Jul 26 2022 04:02:40) complex                        
  
 executed on             LinuxIFC date 2023.11.30  02:46:29
 running on   48 total cores
 distrk:  each k-point on   48 cores,    1 groups
 distr:  one band on NCORE=  12 cores,    4 groups


--------------------------------------------------------------------------------------------------------


 INCAR:
   ISTART = 0
   NWRITE = 2
   PREC = Accurate
   ENCUT = 250
   GGA = PE
   NSW = 0
   ISIF = 2
   ISYM = 2
   NBLOCK = 1
   KBLOCK = 1
   IBRION = -1
   NELM = 80
   EDIFF = 1E-08
   EDIFFG = -0.01
   ALGO = Normal
   LDIAG = .TRUE.
   LREAL = .FALSE.
   ISMEAR = 0
   SIGMA = 0.02
   ICHARG = 2
   LPLANE = .TRUE.
   NPAR = 4
   LSCALU = .FALSE.
   NSIM = 4
   LWAVE = .FALSE.
   LCHARG = .FALSE.
   ICORELEVEL = 1

 POTCAR:    PAW_PBE Nb_sv 25May2007               
 POTCAR:    PAW_PBE Mo_sv 02Feb2006               
 POTCAR:    PAW_PBE Ta_pv 07Sep2000               
 POTCAR:    PAW_PBE W_sv 04Sep2015                
 POTCAR:    PAW_PBE Nb_sv 25May2007               
   SHA256 =  0e8fc07c9fcd1164cf2ade22d0399fd28f85e91cd773dfa6cf24839a48c95e24 Nb_sv/POTCAR          
   COPYR  = (c) Copyright 25May2007 Georg Kresse                                                    
   COPYR  = This file is part of the software VASP. Any use, copying, and all other rights are regul
   COPYR  = If you do not have a valid VASP license, you may not use, copy or distribute this file. 
   VRHFIN =Nb: 4p5s4d                                                                               
   LEXCH  = PE                                                                                      
   EATOM  =  1555.1913 eV,  114.3033 Ry                                                             
                                                                                                    
   TITEL  = PAW_PBE Nb_sv 25May2007                                                                 
   LULTRA =        F    use ultrasoft PP ?                                                          
   IUNSCR =        1    unscreen: 0-lin 1-nonlin 2-no                                               
   RPACOR =    1.800    partial core radius                                                         
   POMASS =   92.910; ZVAL   =   13.000    mass and valenz                                          
   RCORE  =    2.400    outmost cutoff radius                                                       
   RWIGS  =    2.400; RWIGS  =    1.270    wigner-seitz radius (au A)                               
   ENMAX  =  293.235; ENMIN  =  219.927 eV                                                          
   ICORE  =        3    local potential                                                             
   LCOR   =        T    correct aug charges                                                         
   LPAW   =        T    paw PP                                                                      
   EAUG   =  455.659                                                                                
   DEXC   =    0.000                                                                                
   RMAX   =    2.456    core radius for proj-oper                                                   
   RAUG   =    1.300    factor for augmentation sphere                                              
   RDEP   =    2.451    radius for radial grids                                                     
   RDEPT  =    1.956    core radius for aug-charge                                                  
                                                                                                    
   Atomic configuration                                                                             
   11 entries                                                                                       
     n  l   j            E        occ.                                                              
     1  0  0.50    -18805.2457   2.0000                                                             
     2  0  0.50     -2630.2869   2.0000                                                             
     2  1  1.50     -2348.4046   6.0000                                                             
     3  0  0.50      -438.8757   2.0000                                                             
     3  1  1.50      -346.7588   6.0000                                                             
     3  2  2.50      -196.2560  10.0000                                                             
     4  0  0.50       -58.3859   2.0000                                                             
     5  0  0.50        -3.9816   1.0000                                                             
     4  1  1.50       -34.5141   6.0000                                                             
     4  2  2.50        -3.0408   4.0000                                                             
     4  3  2.50        -1.3606   0.0000                                                             
   Description                                                                                      
     l       E           TYP  RCUT    TYP  RCUT                                                     
     0    -58.3859094     23  2.200                                                                 
     0     -3.9816262     23  2.200                                                                 
     1    -34.5140738     23  2.200                                                                 
     1     13.6058260     23  2.200                                                                 
     2     -3.0408010     23  2.200                                                                 
     2     -0.1283038     23  2.200                                                                 
     3     -1.3605826     23  2.400                                                                 
  local pseudopotential read in
  partial core-charges read in
  partial kinetic energy density read in
  atomic valenz-charges read in
  non local Contribution for L=           0  read in
    real space projection operators read in
  non local Contribution for L=           0  read in
    real space projection operators read in
  non local Contribution for L=           1  read in
    real space projection operators read in
  non local Contribution for L=           1  read in
    real space projection operators read in
  non local Contribution for L=           2  read in
    real space projection operators read in
  non local Contribution for L=           2  read in
    real space projection operators read in
    PAW grid and wavefunctions read in
 
   number of l-projection  operators is LMAX  =           6
   number of lm-projection operators is LMMAX =          18
 
 POTCAR:    PAW_PBE Mo_sv 02Feb2006               
   SHA256 =  2731df97e41766cc617548c5a8267718fdef1f509ac6bafa01e745abea2bdfaa Mo_sv/POTCAR          
   COPYR  = (c) Copyright 02Feb2006 Georg Kresse                                                    
   COPYR  = This file is part of the software VASP. Any use, copying, and all other rights are regul
   COPYR  = If you do not have a valid VASP license, you may not use, copy or distribute this file. 
   VRHFIN =Mo: 4p5s4d                                                                               
   LEXCH  = PE                                                                                      
   EATOM  =  1862.2866 eV,  136.8742 Ry                                                             
                                                                                                    
   TITEL  = PAW_PBE Mo_sv 02Feb2006                                                                 
   LULTRA =        F    use ultrasoft PP ?                                                          
   IUNSCR =        1    unscreen: 0-lin 1-nonlin 2-no                                               
   RPACOR =    2.200    partial core radius                                                         
   POMASS =   95.940; ZVAL   =   14.000    mass and valenz                                          
   RCORE  =    2.500    outmost cutoff radius                                                       
   RWIGS  =    2.750; RWIGS  =    1.455    wigner-seitz radius (au A)                               
   ENMAX  =  242.676; ENMIN  =  182.007 eV                                                          
   ICORE  =        3    local potential                                                             
   LCOR   =        T    correct aug charges                                                         
   LPAW   =        T    paw PP                                                                      
   EAUG   =  446.014                                                                                
   DEXC   =    0.000                                                                                
   RMAX   =    2.563    core radius for proj-oper                                                   
   RAUG   =    1.300    factor for augmentation sphere                                              
   RDEP   =    2.641    radius for radial grids                                                     
   RDEPT  =    2.031    core radius for aug-charge                                                  
                                                                                                    
   Atomic configuration                                                                             
   11 entries                                                                                       
     n  l   j            E        occ.                                                              
     1  0  0.50    -19819.0341   2.0000                                                             
     2  0  0.50     -2799.0127   2.0000                                                             
     2  1  1.50     -2502.0276   6.0000                                                             
     3  0  0.50      -476.4449   2.0000                                                             
     3  1  1.50      -379.1496   6.0000                                                             
     3  2  2.50      -220.9367  10.0000                                                             
     4  0  0.50       -64.3378   2.0000                                                             
     5  0  0.50        -4.0862   1.0000                                                             
     4  1  1.50       -38.4773   6.0000                                                             
     4  2  2.50        -3.7535   5.0000                                                             
     4  3  2.50        -1.3606   0.0000                                                             
   Description                                                                                      
     l       E           TYP  RCUT    TYP  RCUT                                                     
     0    -64.3377829     23  2.100                                                                 
     0     -4.0861640     23  2.400                                                                 
     1    -38.4772993     23  2.100                                                                 
     1     13.6058260     23  2.100                                                                 
     2     -3.7534941     23  2.400                                                                 
     2     -5.1140767     23  2.400                                                                 
     3     -4.0817478     23  2.500                                                                 
  local pseudopotential read in
  partial core-charges read in
  partial kinetic energy density read in
  atomic valenz-charges read in
  non local Contribution for L=           0  read in
    real space projection operators read in
  non local Contribution for L=           0  read in
    real space projection operators read in
  non local Contribution for L=           1  read in
    real space projection operators read in
  non local Contribution for L=           1  read in
    real space projection operators read in
  non local Contribution for L=           2  read in
    real space projection operators read in
  non local Contribution for L=           2  read in
    real space projection operators read in
    PAW grid and wavefunctions read in
 
   number of l-projection  operators is LMAX  =           6
   number of lm-projection operators is LMMAX =          18
 
 POTCAR:    PAW_PBE Ta_pv 07Sep2000               
   SHA256 =  00d0a14a36c127416459414afb8617d9754996fffa60a2465888e660b20a452f Ta_pv/POTCAR          
   COPYR  = (c) Copyright 07Sep2000 Georg Kresse                                                    
   COPYR  = This file is part of the software VASP. Any use, copying, and all other rights are regul
   COPYR  = If you do not have a valid VASP license, you may not use, copy or distribute this file. 
   VRHFIN =Ta:  5p6s5d                                                                              
   LEXCH  = PE                                                                                      
   EATOM  =  1047.1984 eV,   76.9669 Ry                                                             
                                                                                                    
   TITEL  = PAW_PBE Ta_pv 07Sep2000                                                                 
   LULTRA =        F    use ultrasoft PP ?                                                          
   IUNSCR =        1    unscreen: 0-lin 1-nonlin 2-no                                               
   RPACOR =    2.330    partial core radius                                                         
   POMASS =  180.948; ZVAL   =   11.000    mass and valenz                                          
   RCORE  =    2.500    outmost cutoff radius                                                       
   RWIGS  =    2.840; RWIGS  =    1.503    wigner-seitz radius (au A)                               
   ENMAX  =  223.667; ENMIN  =  167.750 eV                                                          
   RCLOC  =    2.205    cutoff for local pot                                                        
   LCOR   =        T    correct aug charges                                                         
   LPAW   =        T    paw PP                                                                      
   EAUG   =  377.421                                                                                
   DEXC   =    0.000                                                                                
   RMAX   =    2.551    core radius for proj-oper                                                   
   RAUG   =    1.300    factor for augmentation sphere                                              
   RDEP   =    2.526    radius for radial grids                                                     
   RDEPT  =    2.132    core radius for aug-charge                                                  
                                                                                                    
   Atomic configuration                                                                             
   15 entries                                                                                       
     n  l   j            E        occ.                                                              
     1  0  0.50    -67341.2801   2.0000                                                             
     2  0  0.50    -11566.9369   2.0000                                                             
     2  1  1.50    -10134.1175   6.0000                                                             
     3  0  0.50     -2648.5614   2.0000                                                             
     3  1  1.50     -2222.6006   6.0000                                                             
     3  2  2.50     -1726.3114  10.0000                                                             
     4  0  0.50      -538.6957   2.0000                                                             
     4  1  1.50      -399.0125   6.0000                                                             
     4  2  2.50      -220.3955  10.0000                                                             
     4  3  3.50       -23.0371  14.0000                                                             
     5  0  0.50       -71.2900   2.0000                                                             
     5  1  1.50       -37.8224   6.0000                                                             
     5  2  2.50        -2.6455   4.0000                                                             
     6  0  0.50        -4.9623   1.0000                                                             
     5  3  2.50        -1.3606   0.0000                                                             
   Description                                                                                      
     l       E           TYP  RCUT    TYP  RCUT                                                     
     1    -37.8224449     23  2.500                                                                 
     1      1.3605826     23  2.500                                                                 
     2     -2.6454718     23  2.500                                                                 
     2     -0.6258570     23  2.500                                                                 
     0     -4.9622674     23  2.500                                                                 
     0      4.7531427     23  2.500                                                                 
  local pseudopotential read in
  partial core-charges read in
  partial kinetic energy density read in
  atomic valenz-charges read in
  non local Contribution for L=           1  read in
    real space projection operators read in
  non local Contribution for L=           1  read in
    real space projection operators read in
  non local Contribution for L=           2  read in
    real space projection operators read in
  non local Contribution for L=           2  read in
    real space projection operators read in
  non local Contribution for L=           0  read in
    real space projection operators read in
  non local Contribution for L=           0  read in
    real space projection operators read in
    PAW grid and wavefunctions read in
 
   number of l-projection  operators is LMAX  =           6
   number of lm-projection operators is LMMAX =          18
 
 POTCAR:    PAW_PBE W_sv 04Sep2015                
   SHA256 =  931c2d770f65867ef30f3db3421922900fc0890ebac5c3e12f63b6a2064023d7 W_sv/POTCAR           
   COPYR  = (c) Copyright 04Sep2015 Georg Kresse                                                    
   COPYR  = This file is part of the software VASP. Any use, copying, and all other rights are regul
   COPYR  = If you do not have a valid VASP license, you may not use, copy or distribute this file. 
   VRHFIN =W : 5p6s5d                                                                               
   LEXCH  = PE                                                                                      
   EATOM  =  1865.5791 eV,  137.1162 Ry                                                             
                                                                                                    
   TITEL  = PAW_PBE W_sv 04Sep2015                                                                  
   LULTRA =        F    use ultrasoft PP ?                                                          
   IUNSCR =        1    unscreen: 0-lin 1-nonlin 2-no                                               
   RPACOR =    2.330    partial core radius                                                         
   POMASS =  183.850; ZVAL   =   14.000    mass and valenz                                          
   RCORE  =    2.500    outmost cutoff radius                                                       
   RWIGS  =    2.750; RWIGS  =    1.455    wigner-seitz radius (au A)                               
   ENMAX  =  223.057; ENMIN  =  167.293 eV                                                          
   ICORE  =        3    local potential                                                             
   LCOR   =        T    correct aug charges                                                         
   LPAW   =        T    paw PP                                                                      
   EAUG   =  373.438                                                                                
   DEXC   =    0.000                                                                                
   RMAX   =    2.565    core radius for proj-oper                                                   
   RAUG   =    1.300    factor for augmentation sphere                                              
   RDEP   =    2.539    radius for radial grids                                                     
   RDEPT  =    2.126    core radius for aug-charge                                                  
                                                                                                    
   Atomic configuration                                                                             
   15 entries                                                                                       
     n  l   j            E        occ.                                                              
     1  0  0.50    -69465.5834   2.0000                                                             
     2  0  0.50    -11986.2640   2.0000                                                             
     2  1  1.50    -10479.8613   6.0000                                                             
     3  0  0.50     -2759.0756   2.0000                                                             
     3  1  1.50     -2313.1855   6.0000                                                             
     3  2  2.50     -1801.1183  10.0000                                                             
     4  0  0.50      -567.6789   2.0000                                                             
     4  1  1.50      -421.4692   6.0000                                                             
     4  2  2.50      -236.3471  10.0000                                                             
     4  3  3.50       -31.2665  14.0000                                                             
     5  0  0.50       -77.1084   2.0000                                                             
     6  0  0.50        -5.1438   1.0000                                                             
     5  1  1.50       -41.3856   6.0000                                                             
     5  2  2.50        -3.3185   5.0000                                                             
     5  3  2.50        -1.3606   0.0000                                                             
   Description                                                                                      
     l       E           TYP  RCUT    TYP  RCUT                                                     
     0    -77.1084470     23  2.100                                                                 
     0     -5.1437956     23  2.300                                                                 
     1    -41.3855615     23  2.500                                                                 
     1     -2.7211652     23  2.500                                                                 
     2     -3.3185025     23  2.500                                                                 
     2     -1.5965151     23  2.500                                                                 
     3     -1.3605826     23  2.500                                                                 
  local pseudopotential read in
  partial core-charges read in
  partial kinetic energy density read in
  kinetic energy density of atom read in
  atomic valenz-charges read in
  non local Contribution for L=           0  read in
    real space projection operators read in
  non local Contribution for L=           0  read in
    real space projection operators read in
  non local Contribution for L=           1  read in
    real space projection operators read in
  non local Contribution for L=           1  read in
    real space projection operators read in
  non local Contribution for L=           2  read in
    real space projection operators read in
  non local Contribution for L=           2  read in
    real space projection operators read in
    PAW grid and wavefunctions read in
 
   number of l-projection  operators is LMAX  =           6
   number of lm-projection operators is LMMAX =          18
 
  PAW_PBE Nb_sv 25May2007               :
 energy of atom  1       EATOM=-1555.1913
 kinetic energy error for atom=    0.2155 (will be added to EATOM!!)
  PAW_PBE Mo_sv 02Feb2006               :
 energy of atom  2       EATOM=-1862.2866
 kinetic energy error for atom=    0.1102 (will be added to EATOM!!)
  PAW_PBE Ta_pv 07Sep2000               :
 energy of atom  3       EATOM=-1047.1984
 kinetic energy error for atom=    0.0394 (will be added to EATOM!!)
  PAW_PBE W_sv 04Sep2015                :
 energy of atom  4       EATOM=-1865.5791
 kinetic energy error for atom=    0.0589 (will be added to EATOM!!)
 
 
 POSCAR: Nb-Mo-Ta-W alloy
  positions in direct lattice
  No initial velocities read in
 exchange correlation table for  LEXCH =        8
   RHO(1)=    0.500       N(1)  =     2000
   RHO(2)=  100.500       N(2)  =     4000
 


--------------------------------------------------------------------------------------------------------


 ion  position               nearest neighbor table
   1  0.000  0.500  0.000-   2 2.85   4 2.85   5 2.85   7 2.85  10 2.85  12 2.85  15 2.85  16 2.85

   2  0.750  0.250  0.750-   1 2.85   3 2.85   6 2.85   8 2.85   9 2.85  11 2.85  13 2.85  14 2.85
                            12 3.29  15 3.29  12 3.29  15 3.29
   3  0.000  0.000  0.000-   2 2.85   4 2.85   5 2.85   7 2.85  10 2.85  12 2.85  15 2.85  16 2.85
                            13 3.29  13 3.29
   4  0.750  0.250  0.250-   1 2.85   3 2.85   6 2.85   8 2.85   9 2.85  11 2.85  13 2.85  14 2.85

   5  0.250  0.250  0.250-   1 2.85   3 2.85   6 2.85   8 2.85   9 2.85  11 2.85  13 2.85  14 2.85
                            15 3.29  15 3.29
   6  0.000  0.500  0.500-   2 2.85   4 2.85   5 2.85   7 2.85  10 2.85  12 2.85  15 2.85  16 2.85
                            13 3.29  14 3.29  13 3.29  14 3.29
   7  0.750  0.750  0.250-   1 2.85   3 2.85   6 2.85   8 2.85   9 2.85  11 2.85  13 2.85  14 2.85
                            12 3.29  12 3.29
   8  0.500  0.500  0.000-   2 2.85   4 2.85   5 2.85   7 2.85  10 2.85  12 2.85  15 2.85  16 2.85
                             9 3.29  14 3.29  14 3.29   9 3.29
   9  0.500  0.000  0.000-   2 2.85   4 2.85   5 2.85   7 2.85  10 2.85  12 2.85  15 2.85  16 2.85
                            11 3.29   8 3.29  11 3.29   8 3.29
  10  0.250  0.750  0.250-   1 2.85   3 2.85   6 2.85   8 2.85   9 2.85  11 2.85  13 2.85  14 2.85
                            16 3.29  16 3.29
  11  0.500  0.000  0.500-   2 2.85   4 2.85   5 2.85   7 2.85  10 2.85  12 2.85  15 2.85  16 2.85
                            14 3.29   9 3.29  13 3.29   9 3.29  14 3.29  13 3.29
  12  0.750  0.750  0.750-   1 2.85   3 2.85   6 2.85   8 2.85   9 2.85  11 2.85  13 2.85  14 2.85
                             7 3.29   2 3.29  16 3.29   7 3.29   2 3.29  16 3.29
  13  0.000  0.000  0.500-   2 2.85   4 2.85   5 2.85   7 2.85  10 2.85  12 2.85  15 2.85  16 2.85
                             3 3.29   6 3.29  11 3.29   3 3.29   6 3.29  11 3.29
  14  0.500  0.500  0.500-   2 2.85   4 2.85   5 2.85   7 2.85  10 2.85  12 2.85  15 2.85  16 2.85
                             8 3.29   6 3.29  11 3.29   8 3.29  11 3.29   6 3.29
  15  0.250  0.250  0.750-   1 2.85   3 2.85   6 2.85   8 2.85   9 2.85  11 2.85  13 2.85  14 2.85
                             2 3.29   5 3.29  16 3.29   5 3.29  16 3.29   2 3.29
  16  0.250  0.750  0.750-   1 2.85   3 2.85   6 2.85   8 2.85   9 2.85  11 2.85  13 2.85  14 2.85
                            10 3.29  12 3.29  15 3.29  10 3.29  15 3.29  12 3.29
 
  LATTYP: Found a simple cubic cell.
 ALAT       =     6.5800000000
  
  Lattice vectors:
  
 A1 = (   6.5800000000,   0.0000000000,   0.0000000000)
 A2 = (   0.0000000000,   6.5800000000,   0.0000000000)
 A3 = (   0.0000000000,   0.0000000000,   6.5800000000)


Analysis of symmetry for initial positions (statically):
=====================================================================
 Subroutine PRICEL returns:
 Original cell was already a primitive cell.
 

 Routine SETGRP: Setting up the symmetry group for a 
 simple cubic supercell.


 Subroutine GETGRP returns: Found  1 space group operations
 (whereof  1 operations were pure point group operations)
 out of a pool of 48 trial point group operations.


The static configuration has the point symmetry C_1 .


Analysis of symmetry for dynamics (positions and initial velocities):
=====================================================================
 Subroutine PRICEL returns:
 Original cell was already a primitive cell.
 

 Routine SETGRP: Setting up the symmetry group for a 
 simple cubic supercell.


 Subroutine GETGRP returns: Found  1 space group operations
 (whereof  1 operations were pure point group operations)
 out of a pool of 48 trial point group operations.


The dynamic configuration has the point symmetry C_1 .


 Subroutine INISYM returns: Found  1 space group operations
 (whereof  1 operations are pure point group operations),
 and found     1 'primitive' translations


----------------------------------------------------------------------------------------

                                     Primitive cell                                     

  volume of cell :     284.8903

  direct lattice vectors                    reciprocal lattice vectors
     6.580000000  0.000000000  0.000000000     0.151975684  0.000000000  0.000000000
     0.000000000  6.580000000  0.000000000     0.000000000  0.151975684  0.000000000
     0.000000000  0.000000000  6.580000000     0.000000000  0.000000000  0.151975684

  length of vectors
     6.580000000  6.580000000  6.580000000     0.151975684  0.151975684  0.151975684

  position of ions in fractional coordinates (direct lattice)
     0.000000000  0.500000000  0.000000000
     0.750000000  0.250000000  0.750000000
     0.000000000  0.000000000  0.000000000
     0.750000000  0.250000000  0.250000000
     0.250000000  0.250000000  0.250000000
     0.000000000  0.500000000  0.500000000
     0.750000000  0.750000000  0.250000000
     0.500000000  0.500000000  0.000000000
     0.500000000  0.000000000  0.000000000
     0.250000000  0.750000000  0.250000000
     0.500000000  0.000000000  0.500000000
     0.750000000  0.750000000  0.750000000
     0.000000000  0.000000000  0.500000000
     0.500000000  0.500000000  0.500000000
     0.250000000  0.250000000  0.750000000
     0.250000000  0.750000000  0.750000000

  ion indices of the primitive-cell ions
   primitive index   ion index
                 1           1
                 2           2
                 3           3
                 4           4
                 5           5
                 6           6
                 7           7
                 8           8
                 9           9
                10          10
                11          11
                12          12
                13          13
                14          14
                15          15
                16          16

----------------------------------------------------------------------------------------

 
 
 KPOINTS: K-Spacing Value to Generate K-Mesh: 0.03

Automatic generation of k-mesh.
 Grid dimensions read from file:
 generate k-points for:    5    5    5

 Generating k-lattice:

  Cartesian coordinates                     Fractional coordinates (reciprocal lattice)
     0.030395137  0.000000000  0.000000000     0.200000000  0.000000000  0.000000000
     0.000000000  0.030395137  0.000000000     0.000000000  0.200000000  0.000000000
     0.000000000  0.000000000  0.030395137     0.000000000  0.000000000  0.200000000

  Length of vectors
     0.030395137  0.030395137  0.030395137

  Shift w.r.t. Gamma in fractional coordinates (k-lattice)
     0.000000000  0.000000000  0.000000000

 
 Subroutine IBZKPT returns following result:
 ===========================================
 
 Found     63 irreducible k-points:
 
 Following reciprocal coordinates:
            Coordinates               Weight
  0.000000  0.000000  0.000000      1.000000
  0.200000  0.000000  0.000000      2.000000
  0.000000  0.200000  0.000000      2.000000
  0.000000  0.000000  0.200000      2.000000
  0.400000  0.000000  0.000000      2.000000
  0.000000  0.400000  0.000000      2.000000
  0.000000  0.000000  0.400000      2.000000
  0.200000  0.200000  0.000000      2.000000
  0.000000  0.200000  0.200000      2.000000
  0.200000  0.000000  0.200000      2.000000
 -0.200000  0.200000  0.000000      2.000000
 -0.200000  0.000000  0.200000      2.000000
  0.000000 -0.200000  0.200000      2.000000
  0.400000  0.200000  0.000000      2.000000
  0.000000  0.400000  0.200000      2.000000
  0.200000  0.000000  0.400000      2.000000
 -0.200000  0.400000  0.000000      2.000000
 -0.400000  0.000000  0.200000      2.000000
  0.000000  0.200000  0.400000      2.000000
  0.000000 -0.400000  0.200000      2.000000
 -0.200000  0.000000  0.400000      2.000000
  0.400000  0.000000  0.200000      2.000000
  0.000000 -0.200000  0.400000      2.000000
  0.400000 -0.200000  0.000000      2.000000
  0.200000  0.400000  0.000000      2.000000
  0.400000  0.400000  0.000000      2.000000
  0.000000  0.400000  0.400000      2.000000
  0.400000  0.000000  0.400000      2.000000
 -0.400000  0.400000  0.000000      2.000000
 -0.400000  0.000000  0.400000      2.000000
  0.000000 -0.400000  0.400000      2.000000
  0.200000  0.200000  0.200000      2.000000
 -0.200000  0.200000  0.200000      2.000000
 -0.200000 -0.200000  0.200000      2.000000
  0.200000 -0.200000  0.200000      2.000000
  0.400000  0.200000  0.200000      2.000000
  0.200000  0.400000  0.200000      2.000000
  0.200000  0.200000  0.400000      2.000000
 -0.200000  0.400000  0.200000      2.000000
 -0.400000  0.200000  0.200000      2.000000
 -0.200000  0.200000  0.400000      2.000000
 -0.400000 -0.200000  0.200000      2.000000
 -0.200000 -0.400000  0.200000      2.000000
 -0.200000 -0.200000  0.400000      2.000000
  0.200000 -0.400000  0.200000      2.000000
  0.400000 -0.200000  0.200000      2.000000
  0.200000 -0.200000  0.400000      2.000000
  0.400000  0.400000  0.200000      2.000000
  0.200000  0.400000  0.400000      2.000000
  0.400000  0.200000  0.400000      2.000000
 -0.400000  0.400000  0.200000      2.000000
 -0.400000  0.200000  0.400000      2.000000
 -0.200000  0.400000  0.400000      2.000000
 -0.400000 -0.400000  0.200000      2.000000
 -0.200000 -0.400000  0.400000      2.000000
 -0.400000 -0.200000  0.400000      2.000000
  0.400000 -0.400000  0.200000      2.000000
  0.400000 -0.200000  0.400000      2.000000
  0.200000 -0.400000  0.400000      2.000000
  0.400000  0.400000  0.400000      2.000000
 -0.400000  0.400000  0.400000      2.000000
 -0.400000 -0.400000  0.400000      2.000000
  0.400000 -0.400000  0.400000      2.000000
 
 Following cartesian coordinates:
            Coordinates               Weight
  0.000000  0.000000  0.000000      1.000000
  0.030395  0.000000  0.000000      2.000000
  0.000000  0.030395  0.000000      2.000000
  0.000000  0.000000  0.030395      2.000000
  0.060790  0.000000  0.000000      2.000000
  0.000000  0.060790  0.000000      2.000000
  0.000000  0.000000  0.060790      2.000000
  0.030395  0.030395  0.000000      2.000000
  0.000000  0.030395  0.030395      2.000000
  0.030395  0.000000  0.030395      2.000000
 -0.030395  0.030395  0.000000      2.000000
 -0.030395  0.000000  0.030395      2.000000
  0.000000 -0.030395  0.030395      2.000000
  0.060790  0.030395  0.000000      2.000000
  0.000000  0.060790  0.030395      2.000000
  0.030395  0.000000  0.060790      2.000000
 -0.030395  0.060790  0.000000      2.000000
 -0.060790  0.000000  0.030395      2.000000
  0.000000  0.030395  0.060790      2.000000
  0.000000 -0.060790  0.030395      2.000000
 -0.030395  0.000000  0.060790      2.000000
  0.060790  0.000000  0.030395      2.000000
  0.000000 -0.030395  0.060790      2.000000
  0.060790 -0.030395  0.000000      2.000000
  0.030395  0.060790  0.000000      2.000000
  0.060790  0.060790  0.000000      2.000000
  0.000000  0.060790  0.060790      2.000000
  0.060790  0.000000  0.060790      2.000000
 -0.060790  0.060790  0.000000      2.000000
 -0.060790  0.000000  0.060790      2.000000
  0.000000 -0.060790  0.060790      2.000000
  0.030395  0.030395  0.030395      2.000000
 -0.030395  0.030395  0.030395      2.000000
 -0.030395 -0.030395  0.030395      2.000000
  0.030395 -0.030395  0.030395      2.000000
  0.060790  0.030395  0.030395      2.000000
  0.030395  0.060790  0.030395      2.000000
  0.030395  0.030395  0.060790      2.000000
 -0.030395  0.060790  0.030395      2.000000
 -0.060790  0.030395  0.030395      2.000000
 -0.030395  0.030395  0.060790      2.000000
 -0.060790 -0.030395  0.030395      2.000000
 -0.030395 -0.060790  0.030395      2.000000
 -0.030395 -0.030395  0.060790      2.000000
  0.030395 -0.060790  0.030395      2.000000
  0.060790 -0.030395  0.030395      2.000000
  0.030395 -0.030395  0.060790      2.000000
  0.060790  0.060790  0.030395      2.000000
  0.030395  0.060790  0.060790      2.000000
  0.060790  0.030395  0.060790      2.000000
 -0.060790  0.060790  0.030395      2.000000
 -0.060790  0.030395  0.060790      2.000000
 -0.030395  0.060790  0.060790      2.000000
 -0.060790 -0.060790  0.030395      2.000000
 -0.030395 -0.060790  0.060790      2.000000
 -0.060790 -0.030395  0.060790      2.000000
  0.060790 -0.060790  0.030395      2.000000
  0.060790 -0.030395  0.060790      2.000000
  0.030395 -0.060790  0.060790      2.000000
  0.060790  0.060790  0.060790      2.000000
 -0.060790  0.060790  0.060790      2.000000
 -0.060790 -0.060790  0.060790      2.000000
  0.060790 -0.060790  0.060790      2.000000
 


--------------------------------------------------------------------------------------------------------




 Dimension of arrays:
   k-points           NKPTS =     63   k-points in BZ     NKDIM =     63   number of bands    NBANDS=    124
   number of dos      NEDOS =    301   number of ions     NIONS =     16
   non local maximal  LDIM  =      6   non local SUM 2l+1 LMDIM =     18
   total plane-waves  NPLWV =  46656
   max r-space proj   IRMAX =      1   max aug-charges    IRDMAX=   9546
   dimension x,y,z NGX =    36 NGY =   36 NGZ =   36
   dimension x,y,z NGXF=    72 NGYF=   72 NGZF=   72
   support grid    NGXF=    72 NGYF=   72 NGZF=   72
   ions per type =               7   4   4   1
   NGX,Y,Z   is equivalent  to a cutoff of   9.10,  9.10,  9.10 a.u.
   NGXF,Y,Z  is equivalent  to a cutoff of  18.19, 18.19, 18.19 a.u.

 SYSTEM =  unknown system                          
 POSCAR =  Nb-Mo-Ta-W alloy                        

 Startparameter for this run:
   NWRITE =      2    write-flag & timer
   PREC   = accura    normal or accurate (medium, high low for compatibility)
   ISTART =      0    job   : 0-new  1-cont  2-samecut
   ICHARG =      2    charge: 1-file 2-atom 10-const
   ISPIN  =      1    spin polarized calculation?
   LNONCOLLINEAR =      F non collinear calculations
   LSORBIT =      F    spin-orbit coupling
   INIWAV =      1    electr: 0-lowe 1-rand  2-diag
   LASPH  =      F    aspherical Exc in radial PAW
 Electronic Relaxation 1
   ENCUT  =  250.0 eV  18.37 Ry    4.29 a.u.   8.48  8.48  8.48*2*pi/ulx,y,z
   ENINI  =  250.0     initial cutoff
   ENAUG  =  455.7 eV  augmentation charge cutoff
   NELM   =     80;   NELMIN=  2; NELMDL= -5     # of ELM steps 
   EDIFF  = 0.1E-07   stopping-criterion for ELM
   LREAL  =      F    real-space projection
   NLSPLINE    = F    spline interpolate recip. space projectors
   LCOMPAT=      F    compatible to vasp.4.4
   GGA_COMPAT  = T    GGA compatible to vasp.4.4-vasp.4.6
   LMAXPAW     = -100 max onsite density
   LMAXMIX     =    2 max onsite mixed and CHGCAR
   VOSKOWN=      0    Vosko Wilk Nusair interpolation
   ROPT   =    0.00000   0.00000   0.00000   0.00000
 Ionic relaxation
   EDIFFG = -.1E-01   stopping-criterion for IOM
   NSW    =      0    number of steps for IOM
   NBLOCK =      1;   KBLOCK =      1    inner block; outer block 
   IBRION =     -1    ionic relax: 0-MD 1-quasi-New 2-CG
   NFREE  =      0    steps in history (QN), initial steepest desc. (CG)
   ISIF   =      2    stress and relaxation
   IWAVPR =     10    prediction:  0-non 1-charg 2-wave 3-comb
   ISYM   =      2    0-nonsym 1-usesym 2-fastsym
   LCORR  =      T    Harris-Foulkes like correction to forces

   POTIM  = 0.5000    time-step for ionic-motion
   TEIN   =    0.0    initial temperature
   TEBEG  =    0.0;   TEEND  =   0.0 temperature during run
   SMASS  =  -3.00    Nose mass-parameter (am)
   estimated Nose-frequenzy (Omega)   =  0.10E-29 period in steps = 0.13E+47 mass=  -0.989E-27a.u.
   SCALEE = 1.0000    scale energy and forces
   NPACO  =    256;   APACO  = 10.0  distance and # of slots for P.C.
   PSTRESS=    0.0 pullay stress

  Mass of Ions in am
   POMASS =  92.91 95.94180.95183.85
  Ionic Valenz
   ZVAL   =  13.00 14.00 11.00 14.00
  Atomic Wigner-Seitz radii
   RWIGS  =  -1.00 -1.00 -1.00 -1.00
  virtual crystal weights 
   VCA    =   1.00  1.00  1.00  1.00
   NELECT =     205.0000    total number of electrons
   NUPDOWN=      -1.0000    fix difference up-down

 DOS related values:
   EMIN   =  10.00;   EMAX   =-10.00  energy-range for DOS
   EFERMI =   0.00
   ISMEAR =     0;   SIGMA  =   0.02  broadening in eV -4-tet -1-fermi 0-gaus

 Electronic relaxation 2 (details)
   IALGO  =     38    algorithm
   LDIAG  =      T    sub-space diagonalisation (order eigenvalues)
   LSUBROT=      F    optimize rotation matrix (better conditioning)
   TURBO    =      0    0=normal 1=particle mesh
   IRESTART =      0    0=no restart 2=restart with 2 vectors
   NREBOOT  =      0    no. of reboots
   NMIN     =      0    reboot dimension
   EREF     =   0.00    reference energy to select bands
   IMIX   =      4    mixing-type and parameters
     AMIX     =   0.40;   BMIX     =  1.00
     AMIX_MAG =   1.60;   BMIX_MAG =  1.00
     AMIN     =   0.10
     WC   =   100.;   INIMIX=   1;  MIXPRE=   1;  MAXMIX= -45

 Intra band minimization:
   WEIMIN = 0.0000     energy-eigenvalue tresh-hold
   EBREAK =  0.20E-10  absolut break condition
   DEPER  =   0.30     relativ break condition  

   TIME   =   0.40     timestep for ELM

  volume/ion in A,a.u.               =      17.81       120.16
  Fermi-wavevector in a.u.,A,eV,Ry     =   1.467012  2.772250 29.281413  2.152123
  Thomas-Fermi vector in A             =   2.582680
 
 Write flags
   LWAVE        =      F    write WAVECAR
   LDOWNSAMPLE  =      F    k-point downsampling of WAVECAR
   LCHARG       =      F    write CHGCAR
   LVTOT        =      F    write LOCPOT, total local potential
   LVHAR        =      F    write LOCPOT, Hartree potential only
   LELF         =      F    write electronic localiz. function (ELF)
   LORBIT       =      0    0 simple, 1 ext, 2 COOP (PROOUT), +10 PAW based schemes


 Dipole corrections
   LMONO  =      F    monopole corrections only (constant potential shift)
   LDIPOL =      F    correct potential (dipole corrections)
   IDIPOL =      0    1-x, 2-y, 3-z, 4-all directions 
   EPSILON=  1.0000000 bulk dielectric constant

 Core level calculations are selected ICORELEVEL =  1
 Exchange correlation treatment:
   GGA     =    PE    GGA type
   LEXCH   =     8    internal setting for exchange type
   LIBXC   =     F    Libxc                    
   VOSKOWN =     0    Vosko Wilk Nusair interpolation
   LHFCALC =     F    Hartree Fock is set to
   LHFONE  =     F    Hartree Fock one center treatment
   AEXX    =    0.0000 exact exchange contribution

 Linear response parameters
   LEPSILON=     F    determine dielectric tensor
   LRPA    =     F    only Hartree local field effects (RPA)
   LNABLA  =     F    use nabla operator in PAW spheres
   LVEL    =     F    velocity operator in full k-point grid
   CSHIFT  =0.1000    complex shift for real part using Kramers Kronig
   OMEGAMAX=  -1.0    maximum frequency
   DEG_THRESHOLD= 0.2000000E-02 threshold for treating states as degnerate
   RTIME   =   -0.100 relaxation time in fs
  (WPLASMAI=    0.000 imaginary part of plasma frequency in eV, 0.658/RTIME)
   DFIELD  = 0.0000000 0.0000000 0.0000000 field for delta impulse in time
 
  Optional k-point grid parameters
   LKPOINTS_OPT  =     F    use optional k-point grid
   KPOINTS_OPT_MODE=     1    mode for optional k-point grid
 
 Orbital magnetization related:
   ORBITALMAG=     F  switch on orbital magnetization
   LCHIMAG   =     F  perturbation theory with respect to B field
   DQ        =  0.001000  dq finite difference perturbation B field
   LLRAUG    =     F  two centre corrections for induced B field



--------------------------------------------------------------------------------------------------------


 Static calculation
 charge density and potential will be updated during run
 non-spin polarized calculation
 Variant of blocked Davidson
 Davidson routine will perform the subspace rotation
 perform sub-space diagonalisation
    after iterative eigenvector-optimisation
 modified Broyden-mixing scheme, WC =      100.0
 initial mixing is a Kerker type mixing with AMIX =  0.4000 and BMIX =      1.0000
 Hartree-type preconditioning will be used
 using additional bands           21
 reciprocal scheme for non local part
 use partial core corrections
 calculate Harris-corrections to forces 
   (improved forces if not selfconsistent)
 use gradient corrections 
 use of overlap-Matrix (Vanderbilt PP)
 Gauss-broadening in eV      SIGMA  =   0.02


--------------------------------------------------------------------------------------------------------


  energy-cutoff  :      250.00
  volume of cell :      284.89
      direct lattice vectors                 reciprocal lattice vectors
     6.580000000  0.000000000  0.000000000     0.151975684  0.000000000  0.000000000
     0.000000000  6.580000000  0.000000000     0.000000000  0.151975684  0.000000000
     0.000000000  0.000000000  6.580000000     0.000000000  0.000000000  0.151975684

  length of vectors
     6.580000000  6.580000000  6.580000000     0.151975684  0.151975684  0.151975684


 
 k-points in units of 2pi/SCALE and weight: K-Spacing Value to Generate K-Mesh: 0.03
   0.00000000  0.00000000  0.00000000       0.008
   0.03039514  0.00000000  0.00000000       0.016
   0.00000000  0.03039514  0.00000000       0.016
   0.00000000  0.00000000  0.03039514       0.016
   0.06079027  0.00000000  0.00000000       0.016
   0.00000000  0.06079027  0.00000000       0.016
   0.00000000  0.00000000  0.06079027       0.016
   0.03039514  0.03039514  0.00000000       0.016
   0.00000000  0.03039514  0.03039514       0.016
   0.03039514  0.00000000  0.03039514       0.016
  -0.03039514  0.03039514  0.00000000       0.016
  -0.03039514  0.00000000  0.03039514       0.016
   0.00000000 -0.03039514  0.03039514       0.016
   0.06079027  0.03039514  0.00000000       0.016
   0.00000000  0.06079027  0.03039514       0.016
   0.03039514  0.00000000  0.06079027       0.016
  -0.03039514  0.06079027  0.00000000       0.016
  -0.06079027  0.00000000  0.03039514       0.016
   0.00000000  0.03039514  0.06079027       0.016
   0.00000000 -0.06079027  0.03039514       0.016
  -0.03039514  0.00000000  0.06079027       0.016
   0.06079027  0.00000000  0.03039514       0.016
   0.00000000 -0.03039514  0.06079027       0.016
   0.06079027 -0.03039514  0.00000000       0.016
   0.03039514  0.06079027  0.00000000       0.016
   0.06079027  0.06079027  0.00000000       0.016
   0.00000000  0.06079027  0.06079027       0.016
   0.06079027  0.00000000  0.06079027       0.016
  -0.06079027  0.06079027  0.00000000       0.016
  -0.06079027  0.00000000  0.06079027       0.016
   0.00000000 -0.06079027  0.06079027       0.016
   0.03039514  0.03039514  0.03039514       0.016
  -0.03039514  0.03039514  0.03039514       0.016
  -0.03039514 -0.03039514  0.03039514       0.016
   0.03039514 -0.03039514  0.03039514       0.016
   0.06079027  0.03039514  0.03039514       0.016
   0.03039514  0.06079027  0.03039514       0.016
   0.03039514  0.03039514  0.06079027       0.016
  -0.03039514  0.06079027  0.03039514       0.016
  -0.06079027  0.03039514  0.03039514       0.016
  -0.03039514  0.03039514  0.06079027       0.016
  -0.06079027 -0.03039514  0.03039514       0.016
  -0.03039514 -0.06079027  0.03039514       0.016
  -0.03039514 -0.03039514  0.06079027       0.016
   0.03039514 -0.06079027  0.03039514       0.016
   0.06079027 -0.03039514  0.03039514       0.016
   0.03039514 -0.03039514  0.06079027       0.016
   0.06079027  0.06079027  0.03039514       0.016
   0.03039514  0.06079027  0.06079027       0.016
   0.06079027  0.03039514  0.06079027       0.016
  -0.06079027  0.06079027  0.03039514       0.016
  -0.06079027  0.03039514  0.06079027       0.016
  -0.03039514  0.06079027  0.06079027       0.016
  -0.06079027 -0.06079027  0.03039514       0.016
  -0.03039514 -0.06079027  0.06079027       0.016
  -0.06079027 -0.03039514  0.06079027       0.016
   0.06079027 -0.06079027  0.03039514       0.016
   0.06079027 -0.03039514  0.06079027       0.016
   0.03039514 -0.06079027  0.06079027       0.016
   0.06079027  0.06079027  0.06079027       0.016
  -0.06079027  0.06079027  0.06079027       0.016
  -0.06079027 -0.06079027  0.06079027       0.016
   0.06079027 -0.06079027  0.06079027       0.016
 
 k-points in reciprocal lattice and weights: K-Spacing Value to Generate K-Mesh: 0.03
   0.00000000  0.00000000  0.00000000       0.008
   0.20000000  0.00000000  0.00000000       0.016
   0.00000000  0.20000000  0.00000000       0.016
   0.00000000  0.00000000  0.20000000       0.016
   0.40000000  0.00000000  0.00000000       0.016
   0.00000000  0.40000000  0.00000000       0.016
   0.00000000  0.00000000  0.40000000       0.016
   0.20000000  0.20000000  0.00000000       0.016
   0.00000000  0.20000000  0.20000000       0.016
   0.20000000  0.00000000  0.20000000       0.016
  -0.20000000  0.20000000  0.00000000       0.016
  -0.20000000  0.00000000  0.20000000       0.016
   0.00000000 -0.20000000  0.20000000       0.016
   0.40000000  0.20000000  0.00000000       0.016
   0.00000000  0.40000000  0.20000000       0.016
   0.20000000  0.00000000  0.40000000       0.016
  -0.20000000  0.40000000  0.00000000       0.016
  -0.40000000  0.00000000  0.20000000       0.016
   0.00000000  0.20000000  0.40000000       0.016
   0.00000000 -0.40000000  0.20000000       0.016
  -0.20000000  0.00000000  0.40000000       0.016
   0.40000000  0.00000000  0.20000000       0.016
   0.00000000 -0.20000000  0.40000000       0.016
   0.40000000 -0.20000000  0.00000000       0.016
   0.20000000  0.40000000  0.00000000       0.016
   0.40000000  0.40000000  0.00000000       0.016
   0.00000000  0.40000000  0.40000000       0.016
   0.40000000  0.00000000  0.40000000       0.016
  -0.40000000  0.40000000  0.00000000       0.016
  -0.40000000  0.00000000  0.40000000       0.016
   0.00000000 -0.40000000  0.40000000       0.016
   0.20000000  0.20000000  0.20000000       0.016
  -0.20000000  0.20000000  0.20000000       0.016
  -0.20000000 -0.20000000  0.20000000       0.016
   0.20000000 -0.20000000  0.20000000       0.016
   0.40000000  0.20000000  0.20000000       0.016
   0.20000000  0.40000000  0.20000000       0.016
   0.20000000  0.20000000  0.40000000       0.016
  -0.20000000  0.40000000  0.20000000       0.016
  -0.40000000  0.20000000  0.20000000       0.016
  -0.20000000  0.20000000  0.40000000       0.016
  -0.40000000 -0.20000000  0.20000000       0.016
  -0.20000000 -0.40000000  0.20000000       0.016
  -0.20000000 -0.20000000  0.40000000       0.016
   0.20000000 -0.40000000  0.20000000       0.016
   0.40000000 -0.20000000  0.20000000       0.016
   0.20000000 -0.20000000  0.40000000       0.016
   0.40000000  0.40000000  0.20000000       0.016
   0.20000000  0.40000000  0.40000000       0.016
   0.40000000  0.20000000  0.40000000       0.016
  -0.40000000  0.40000000  0.20000000       0.016
  -0.40000000  0.20000000  0.40000000       0.016
  -0.20000000  0.40000000  0.40000000       0.016
  -0.40000000 -0.40000000  0.20000000       0.016
  -0.20000000 -0.40000000  0.40000000       0.016
  -0.40000000 -0.20000000  0.40000000       0.016
   0.40000000 -0.40000000  0.20000000       0.016
   0.40000000 -0.20000000  0.40000000       0.016
   0.20000000 -0.40000000  0.40000000       0.016
   0.40000000  0.40000000  0.40000000       0.016
  -0.40000000  0.40000000  0.40000000       0.016
  -0.40000000 -0.40000000  0.40000000       0.016
   0.40000000 -0.40000000  0.40000000       0.016
 
 position of ions in fractional coordinates (direct lattice) 
   0.00000000  0.50000000  0.00000000
   0.75000000  0.25000000  0.75000000
   0.00000000  0.00000000  0.00000000
   0.75000000  0.25000000  0.25000000
   0.25000000  0.25000000  0.25000000
   0.00000000  0.50000000  0.50000000
   0.75000000  0.75000000  0.25000000
   0.50000000  0.50000000  0.00000000
   0.50000000  0.00000000  0.00000000
   0.25000000  0.75000000  0.25000000
   0.50000000  0.00000000  0.50000000
   0.75000000  0.75000000  0.75000000
   0.00000000  0.00000000  0.50000000
   0.50000000  0.50000000  0.50000000
   0.25000000  0.25000000  0.75000000
   0.25000000  0.75000000  0.75000000
 
 position of ions in cartesian coordinates  (Angst):
   0.00000000  3.29000000  0.00000000
   4.93500000  1.64500000  4.93500000
   0.00000000  0.00000000  0.00000000
   4.93500000  1.64500000  1.64500000
   1.64500000  1.64500000  1.64500000
   0.00000000  3.29000000  3.29000000
   4.93500000  4.93500000  1.64500000
   3.29000000  3.29000000  0.00000000
   3.29000000  0.00000000  0.00000000
   1.64500000  4.93500000  1.64500000
   3.29000000  0.00000000  3.29000000
   4.93500000  4.93500000  4.93500000
   0.00000000  0.00000000  3.29000000
   3.29000000  3.29000000  3.29000000
   1.64500000  1.64500000  4.93500000
   1.64500000  4.93500000  4.93500000
 


--------------------------------------------------------------------------------------------------------


 k-point   1 :   0.0000 0.0000 0.0000  plane waves:    2517
 k-point   2 :   0.2000 0.0000 0.0000  plane waves:    2545
 k-point   3 :   0.0000 0.2000 0.0000  plane waves:    2545
 k-point   4 :   0.0000 0.0000 0.2000  plane waves:    2545
 k-point   5 :   0.4000 0.0000 0.0000  plane waves:    2569
 k-point   6 :   0.0000 0.4000 0.0000  plane waves:    2569
 k-point   7 :   0.0000 0.0000 0.4000  plane waves:    2569
 k-point   8 :   0.2000 0.2000 0.0000  plane waves:    2562
 k-point   9 :   0.0000 0.2000 0.2000  plane waves:    2562
 k-point  10 :   0.2000 0.0000 0.2000  plane waves:    2562
 k-point  11 :  -0.2000 0.2000 0.0000  plane waves:    2562
 k-point  12 :  -0.2000 0.0000 0.2000  plane waves:    2562
 k-point  13 :   0.0000-0.2000 0.2000  plane waves:    2562
 k-point  14 :   0.4000 0.2000 0.0000  plane waves:    2566
 k-point  15 :   0.0000 0.4000 0.2000  plane waves:    2566
 k-point  16 :   0.2000 0.0000 0.4000  plane waves:    2566
 k-point  17 :  -0.2000 0.4000 0.0000  plane waves:    2566
 k-point  18 :  -0.4000 0.0000 0.2000  plane waves:    2566
 k-point  19 :   0.0000 0.2000 0.4000  plane waves:    2566
 k-point  20 :   0.0000-0.4000 0.2000  plane waves:    2566
 k-point  21 :  -0.2000 0.0000 0.4000  plane waves:    2566
 k-point  22 :   0.4000 0.0000 0.2000  plane waves:    2566
 k-point  23 :   0.0000-0.2000 0.4000  plane waves:    2566
 k-point  24 :   0.4000-0.2000 0.0000  plane waves:    2566
 k-point  25 :   0.2000 0.4000 0.0000  plane waves:    2566
 k-point  26 :   0.4000 0.4000 0.0000  plane waves:    2570
 k-point  27 :   0.0000 0.4000 0.4000  plane waves:    2570
 k-point  28 :   0.4000 0.0000 0.4000  plane waves:    2570
 k-point  29 :  -0.4000 0.4000 0.0000  plane waves:    2570
 k-point  30 :  -0.4000 0.0000 0.4000  plane waves:    2570
 k-point  31 :   0.0000-0.4000 0.4000  plane waves:    2570
 k-point  32 :   0.2000 0.2000 0.2000  plane waves:    2572
 k-point  33 :  -0.2000 0.2000 0.2000  plane waves:    2572
 k-point  34 :  -0.2000-0.2000 0.2000  plane waves:    2572
 k-point  35 :   0.2000-0.2000 0.2000  plane waves:    2572
 k-point  36 :   0.4000 0.2000 0.2000  plane waves:    2546
 k-point  37 :   0.2000 0.4000 0.2000  plane waves:    2546
 k-point  38 :   0.2000 0.2000 0.4000  plane waves:    2546
 k-point  39 :  -0.2000 0.4000 0.2000  plane waves:    2546
 k-point  40 :  -0.4000 0.2000 0.2000  plane waves:    2546
 k-point  41 :  -0.2000 0.2000 0.4000  plane waves:    2546
 k-point  42 :  -0.4000-0.2000 0.2000  plane waves:    2546
 k-point  43 :  -0.2000-0.4000 0.2000  plane waves:    2546
 k-point  44 :  -0.2000-0.2000 0.4000  plane waves:    2546
 k-point  45 :   0.2000-0.4000 0.2000  plane waves:    2546
 k-point  46 :   0.4000-0.2000 0.2000  plane waves:    2546
 k-point  47 :   0.2000-0.2000 0.4000  plane waves:    2546
 k-point  48 :   0.4000 0.4000 0.2000  plane waves:    2549
 k-point  49 :   0.2000 0.4000 0.4000  plane waves:    2549
 k-point  50 :   0.4000 0.2000 0.4000  plane waves:    2549
 k-point  51 :  -0.4000 0.4000 0.2000  plane waves:    2549
 k-point  52 :  -0.4000 0.2000 0.4000  plane waves:    2549
 k-point  53 :  -0.2000 0.4000 0.4000  plane waves:    2549
 k-point  54 :  -0.4000-0.4000 0.2000  plane waves:    2549
 k-point  55 :  -0.2000-0.4000 0.4000  plane waves:    2549
 k-point  56 :  -0.4000-0.2000 0.4000  plane waves:    2549
 k-point  57 :   0.4000-0.4000 0.2000  plane waves:    2549
 k-point  58 :   0.4000-0.2000 0.4000  plane waves:    2549
 k-point  59 :   0.2000-0.4000 0.4000  plane waves:    2549
 k-point  60 :   0.4000 0.4000 0.4000  plane waves:    2533
 k-point  61 :  -0.4000 0.4000 0.4000  plane waves:    2533
 k-point  62 :  -0.4000-0.4000 0.4000  plane waves:    2533
 k-point  63 :   0.4000-0.4000 0.4000  plane waves:    2533

 maximum and minimum number of plane-waves per node :       235      194

 maximum number of plane-waves:      2572
 maximum index in each direction: 
   IXMAX=    8   IYMAX=    8   IZMAX=    8
   IXMIN=   -8   IYMIN=   -8   IZMIN=   -8


 parallel 3D FFT for wavefunctions:
    minimum data exchange during FFTs selected (reduces bandwidth)
 parallel 3D FFT for charge:
    minimum data exchange during FFTs selected (reduces bandwidth)


 total amount of memory used by VASP MPI-rank0    47987. kBytes
=======================================================================

   base      :      30000. kBytes
   nonl-proj :       8332. kBytes
   fftplans  :        456. kBytes
   grid      :        919. kBytes
   one-center:         31. kBytes
   wavefun   :       8249. kBytes
 
     INWAV:  cpu time      0.0000: real time      0.0001
 Broyden mixing: mesh for mixing (old mesh)
   NGX = 17   NGY = 17   NGZ = 17
  (NGX  = 72   NGY  = 72   NGZ  = 72)
  gives a total of   4913 points

 initial charge density was supplied:
 charge density of overlapping atoms calculated
 number of electron     205.0000000 magnetization 
 keeping initial charge density in first step


--------------------------------------------------------------------------------------------------------


 Maximum index for augmentation-charges          517 (set IRDMAX)


--------------------------------------------------------------------------------------------------------


 First call to EWALD:  gamma=   0.269
 Maximum number of real-space cells 3x 3x 3
 Maximum number of reciprocal cells 3x 3x 3

    FEWALD:  cpu time      0.0013: real time      0.0013


--------------------------------------- Iteration      1(   1)  ---------------------------------------


    POTLOK:  cpu time      0.0060: real time      0.0105
    SETDIJ:  cpu time      0.0023: real time      0.0025
     EDDAV:  cpu time      3.0193: real time      3.0325
       DOS:  cpu time      0.0049: real time      0.0050
    --------------------------------------------
      LOOP:  cpu time      3.0326: real time      3.0505

 eigenvalue-minimisations  : 15904
 total energy-change (2. order) : 0.1796142E+04  (-0.8042416E+04)
 number of electron     205.0000000 magnetization 
 augmentation part      205.0000000 magnetization 

 Free energy of the ion-electron system (eV)
  ---------------------------------------------------
  alpha Z        PSCENC =      1679.39699631
  Ewald energy   TEWEN  =    -20976.26106305
  -Hartree energ DENC   =     -3897.60545984
  -exchange      EXHF   =         0.00000000
  -V(xc)+E(xc)   XCENC  =       815.55514464
  PAW double counting   =     19375.11192180   -19079.15236162
  entropy T*S    EENTRO =        -0.00153536
  eigenvalues    EBANDS =      -508.59355745
  atomic energy  EATOM  =     24387.69197969
  Solvation  Ediel_sol  =         0.00000000
  ---------------------------------------------------
  free energy    TOTEN  =      1796.14206511 eV

  energy without entropy =     1796.14360047  energy(sigma->0) =     1796.14283279


--------------------------------------------------------------------------------------------------------




--------------------------------------- Iteration      1(   2)  ---------------------------------------


     EDDAV:  cpu time      3.1308: real time      3.1442
       DOS:  cpu time      0.0045: real time      0.0045
    --------------------------------------------
      LOOP:  cpu time      3.1352: real time      3.1487

 eigenvalue-minimisations  : 16708
 total energy-change (2. order) :-0.1817072E+04  (-0.1754734E+04)
 number of electron     205.0000000 magnetization 
 augmentation part      205.0000000 magnetization 

 Free energy of the ion-electron system (eV)
  ---------------------------------------------------
  alpha Z        PSCENC =      1679.39699631
  Ewald energy   TEWEN  =    -20976.26106305
  -Hartree energ DENC   =     -3897.60545984
  -exchange      EXHF   =         0.00000000
  -V(xc)+E(xc)   XCENC  =       815.55514464
  PAW double counting   =     19375.11192180   -19079.15236162
  entropy T*S    EENTRO =        -0.00147763
  eigenvalues    EBANDS =     -2325.66601571
  atomic energy  EATOM  =     24387.69197969
  Solvation  Ediel_sol  =         0.00000000
  ---------------------------------------------------
  free energy    TOTEN  =       -20.93033542 eV

  energy without entropy =      -20.92885779  energy(sigma->0) =      -20.92959660


--------------------------------------------------------------------------------------------------------




--------------------------------------- Iteration      1(   3)  ---------------------------------------


     EDDAV:  cpu time      4.2645: real time      4.2822
       DOS:  cpu time      0.0047: real time      0.0047
    --------------------------------------------
      LOOP:  cpu time      4.2691: real time      4.2869

 eigenvalue-minimisations  : 25400
 total energy-change (2. order) :-0.1531053E+03  (-0.1456782E+03)
 number of electron     205.0000000 magnetization 
 augmentation part      205.0000000 magnetization 

 Free energy of the ion-electron system (eV)
  ---------------------------------------------------
  alpha Z        PSCENC =      1679.39699631
  Ewald energy   TEWEN  =    -20976.26106305
  -Hartree energ DENC   =     -3897.60545984
  -exchange      EXHF   =         0.00000000
  -V(xc)+E(xc)   XCENC  =       815.55514464
  PAW double counting   =     19375.11192180   -19079.15236162
  entropy T*S    EENTRO =        -0.00342970
  eigenvalues    EBANDS =     -2478.76935424
  atomic energy  EATOM  =     24387.69197969
  Solvation  Ediel_sol  =         0.00000000
  ---------------------------------------------------
  free energy    TOTEN  =      -174.03562602 eV

  energy without entropy =     -174.03219632  energy(sigma->0) =     -174.03391117


--------------------------------------------------------------------------------------------------------




--------------------------------------- Iteration      1(   4)  ---------------------------------------


     EDDAV:  cpu time      4.2228: real time      4.2404
       DOS:  cpu time      0.0047: real time      0.0047
    --------------------------------------------
      LOOP:  cpu time      4.2275: real time      4.2451

 eigenvalue-minimisations  : 25512
 total energy-change (2. order) :-0.1023632E+02  (-0.9962735E+01)
 number of electron     205.0000000 magnetization 
 augmentation part      205.0000000 magnetization 

 Free energy of the ion-electron system (eV)
  ---------------------------------------------------
  alpha Z        PSCENC =      1679.39699631
  Ewald energy   TEWEN  =    -20976.26106305
  -Hartree energ DENC   =     -3897.60545984
  -exchange      EXHF   =         0.00000000
  -V(xc)+E(xc)   XCENC  =       815.55514464
  PAW double counting   =     19375.11192180   -19079.15236162
  entropy T*S    EENTRO =        -0.00251884
  eigenvalues    EBANDS =     -2489.00658978
  atomic energy  EATOM  =     24387.69197969
  Solvation  Ediel_sol  =         0.00000000
  ---------------------------------------------------
  free energy    TOTEN  =      -184.27195070 eV

  energy without entropy =     -184.26943186  energy(sigma->0) =     -184.27069128


--------------------------------------------------------------------------------------------------------




--------------------------------------- Iteration      1(   5)  ---------------------------------------


     EDDAV:  cpu time      3.9329: real time      3.9528
       DOS:  cpu time      0.0047: real time      0.0047
    CHARGE:  cpu time      0.0839: real time      0.0842
    MIXING:  cpu time      0.0002: real time      0.0002
    --------------------------------------------
      LOOP:  cpu time      4.0218: real time      4.0419

 eigenvalue-minimisations  : 23376
 total energy-change (2. order) :-0.5709818E+00  (-0.5663399E+00)
 number of electron     204.9999790 magnetization 
 augmentation part       34.4755900 magnetization 

 Broyden mixing:
  rms(total) = 0.47323E+01    rms(broyden)= 0.47312E+01
  rms(prec ) = 0.52967E+01
  weight for this iteration     100.00

 Free energy of the ion-electron system (eV)
  ---------------------------------------------------
  alpha Z        PSCENC =      1679.39699631
  Ewald energy   TEWEN  =    -20976.26106305
  -Hartree energ DENC   =     -3897.60545984
  -exchange      EXHF   =         0.00000000
  -V(xc)+E(xc)   XCENC  =       815.55514464
  PAW double counting   =     19375.11192180   -19079.15236162
  entropy T*S    EENTRO =        -0.00247624
  eigenvalues    EBANDS =     -2489.57761416
  atomic energy  EATOM  =     24387.69197969
  Solvation  Ediel_sol  =         0.00000000
  ---------------------------------------------------
  free energy    TOTEN  =      -184.84293248 eV

  energy without entropy =     -184.84045624  energy(sigma->0) =     -184.84169436


--------------------------------------------------------------------------------------------------------




--------------------------------------- Iteration      1(   6)  ---------------------------------------


    POTLOK:  cpu time      0.0046: real time      0.0048
    SETDIJ:  cpu time      0.0018: real time      0.0019
     EDDAV:  cpu time      3.3217: real time      3.3354
       DOS:  cpu time      0.0046: real time      0.0046
    CHARGE:  cpu time      0.0790: real time      0.0793
    MIXING:  cpu time      0.0002: real time      0.0002
    --------------------------------------------
      LOOP:  cpu time      3.4121: real time      3.4262

 eigenvalue-minimisations  : 18720
 total energy-change (2. order) : 0.6467225E+01  (-0.2224313E+01)
 number of electron     204.9999776 magnetization 
 augmentation part       36.2418310 magnetization 

 Broyden mixing:
  rms(total) = 0.18414E+01    rms(broyden)= 0.18410E+01
  rms(prec ) = 0.25853E+01
  weight for this iteration     100.00

 eigenvalues of (default mixing * dielectric matrix)
  average eigenvalue GAMMA=   1.3765
  1.3765

 Free energy of the ion-electron system (eV)
  ---------------------------------------------------
  alpha Z        PSCENC =      1679.39699631
  Ewald energy   TEWEN  =    -20976.26106305
  -Hartree energ DENC   =     -3688.31248887
  -exchange      EXHF   =         0.00000000
  -V(xc)+E(xc)   XCENC  =       805.01087934
  PAW double counting   =     22667.93238298   -22390.80142783
  entropy T*S    EENTRO =        -0.00508068
  eigenvalues    EBANDS =     -2663.02788526
  atomic energy  EATOM  =     24387.69197969
  Solvation  Ediel_sol  =         0.00000000
  ---------------------------------------------------
  free energy    TOTEN  =      -178.37570737 eV

  energy without entropy =     -178.37062669  energy(sigma->0) =     -178.37316703


--------------------------------------------------------------------------------------------------------




--------------------------------------- Iteration      1(   7)  ---------------------------------------


    POTLOK:  cpu time      0.0042: real time      0.0043
    SETDIJ:  cpu time      0.0017: real time      0.0017
     EDDAV:  cpu time      3.9523: real time      3.9689
       DOS:  cpu time      0.0048: real time      0.0048
    CHARGE:  cpu time      0.0832: real time      0.0835
    MIXING:  cpu time      0.0002: real time      0.0002
    --------------------------------------------
      LOOP:  cpu time      4.0465: real time      4.0635

 eigenvalue-minimisations  : 23408
 total energy-change (2. order) :-0.9302199E+00  (-0.2205888E+01)
 number of electron     204.9999787 magnetization 
 augmentation part       35.5902606 magnetization 

 Broyden mixing:
  rms(total) = 0.13583E+01    rms(broyden)= 0.13578E+01
  rms(prec ) = 0.31270E+01
  weight for this iteration     100.00

 eigenvalues of (default mixing * dielectric matrix)
  average eigenvalue GAMMA=   1.0551
  1.6313  0.4788

 Free energy of the ion-electron system (eV)
  ---------------------------------------------------
  alpha Z        PSCENC =      1679.39699631
  Ewald energy   TEWEN  =    -20976.26106305
  -Hartree energ DENC   =     -3650.28327028
  -exchange      EXHF   =         0.00000000
  -V(xc)+E(xc)   XCENC  =       802.43940016
  PAW double counting   =     24427.09688515   -24151.66848032
  entropy T*S    EENTRO =        -0.00496729
  eigenvalues    EBANDS =     -2697.71340766
  atomic energy  EATOM  =     24387.69197969
  Solvation  Ediel_sol  =         0.00000000
  ---------------------------------------------------
  free energy    TOTEN  =      -179.30592728 eV

  energy without entropy =     -179.30095999  energy(sigma->0) =     -179.30344364


--------------------------------------------------------------------------------------------------------




--------------------------------------- Iteration      1(   8)  ---------------------------------------


    POTLOK:  cpu time      0.0046: real time      0.0048
    SETDIJ:  cpu time      0.0017: real time      0.0017
     EDDAV:  cpu time      3.3803: real time      3.3951
       DOS:  cpu time      0.0045: real time      0.0045
    CHARGE:  cpu time      0.0786: real time      0.0789
    MIXING:  cpu time      0.0003: real time      0.0003
    --------------------------------------------
      LOOP:  cpu time      3.4700: real time      3.4852

 eigenvalue-minimisations  : 19440
 total energy-change (2. order) : 0.3328748E+01  (-0.1104838E+01)
 number of electron     204.9999782 magnetization 
 augmentation part       36.2447287 magnetization 

 Broyden mixing:
  rms(total) = 0.39920E+00    rms(broyden)= 0.39816E+00
  rms(prec ) = 0.54754E+00
  weight for this iteration     100.00

 eigenvalues of (default mixing * dielectric matrix)
  average eigenvalue GAMMA=   1.0763
  1.7474  1.0913  0.3903

 Free energy of the ion-electron system (eV)
  ---------------------------------------------------
  alpha Z        PSCENC =      1679.39699631
  Ewald energy   TEWEN  =    -20976.26106305
  -Hartree energ DENC   =     -3596.32261698
  -exchange      EXHF   =         0.00000000
  -V(xc)+E(xc)   XCENC  =       799.97989532
  PAW double counting   =     25554.39943901   -25283.00783614
  entropy T*S    EENTRO =        -0.00644526
  eigenvalues    EBANDS =     -2741.84752815
  atomic energy  EATOM  =     24387.69197969
  Solvation  Ediel_sol  =         0.00000000
  ---------------------------------------------------
  free energy    TOTEN  =      -175.97717925 eV

  energy without entropy =     -175.97073398  energy(sigma->0) =     -175.97395661


--------------------------------------------------------------------------------------------------------




--------------------------------------- Iteration      1(   9)  ---------------------------------------


    POTLOK:  cpu time      0.0043: real time      0.0044
    SETDIJ:  cpu time      0.0016: real time      0.0017
     EDDAV:  cpu time      3.7268: real time      3.7427
       DOS:  cpu time      0.0048: real time      0.0048
    CHARGE:  cpu time      0.0792: real time      0.0795
    MIXING:  cpu time      0.0002: real time      0.0002
    --------------------------------------------
      LOOP:  cpu time      3.8171: real time      3.8333

 eigenvalue-minimisations  : 21704
 total energy-change (2. order) :-0.9212545E-01  (-0.1639656E+00)
 number of electron     204.9999783 magnetization 
 augmentation part       36.2115773 magnetization 

 Broyden mixing:
  rms(total) = 0.30632E+00    rms(broyden)= 0.30618E+00
  rms(prec ) = 0.46249E+00
  weight for this iteration     100.00

 eigenvalues of (default mixing * dielectric matrix)
  average eigenvalue GAMMA=   1.1364
  2.0963  1.5482  0.5307  0.3703

 Free energy of the ion-electron system (eV)
  ---------------------------------------------------
  alpha Z        PSCENC =      1679.39699631
  Ewald energy   TEWEN  =    -20976.26106305
  -Hartree energ DENC   =     -3593.68988130
  -exchange      EXHF   =         0.00000000
  -V(xc)+E(xc)   XCENC  =       799.84106995
  PAW double counting   =     25856.88653624   -25583.67262746
  entropy T*S    EENTRO =        -0.00608997
  eigenvalues    EBANDS =     -2746.25622511
  atomic energy  EATOM  =     24387.69197969
  Solvation  Ediel_sol  =         0.00000000
  ---------------------------------------------------
  free energy    TOTEN  =      -176.06930470 eV

  energy without entropy =     -176.06321473  energy(sigma->0) =     -176.06625972


--------------------------------------------------------------------------------------------------------




--------------------------------------- Iteration      1(  10)  ---------------------------------------


    POTLOK:  cpu time      0.0041: real time      0.0042
    SETDIJ:  cpu time      0.0017: real time      0.0017
     EDDAV:  cpu time      3.6436: real time      3.6620
       DOS:  cpu time      0.0046: real time      0.0046
    CHARGE:  cpu time      0.0824: real time      0.0827
    MIXING:  cpu time      0.0003: real time      0.0003
    --------------------------------------------
      LOOP:  cpu time      3.7367: real time      3.7556

 eigenvalue-minimisations  : 20952
 total energy-change (2. order) : 0.2733444E-01  (-0.3824715E-01)
 number of electron     204.9999784 magnetization 
 augmentation part       36.1618273 magnetization 

 Broyden mixing:
  rms(total) = 0.14787E+00    rms(broyden)= 0.14782E+00
  rms(prec ) = 0.24131E+00
  weight for this iteration     100.00

 eigenvalues of (default mixing * dielectric matrix)
  average eigenvalue GAMMA=   1.1555
  2.5618  1.6616  0.7794  0.3873  0.3873

 Free energy of the ion-electron system (eV)
  ---------------------------------------------------
  alpha Z        PSCENC =      1679.39699631
  Ewald energy   TEWEN  =    -20976.26106305
  -Hartree energ DENC   =     -3595.70436378
  -exchange      EXHF   =         0.00000000
  -V(xc)+E(xc)   XCENC  =       799.90806792
  PAW double counting   =     26102.90142055   -25826.56525615
  entropy T*S    EENTRO =        -0.00712039
  eigenvalues    EBANDS =     -2747.40263135
  atomic energy  EATOM  =     24387.69197969
  Solvation  Ediel_sol  =         0.00000000
  ---------------------------------------------------
  free energy    TOTEN  =      -176.04197026 eV

  energy without entropy =     -176.03484987  energy(sigma->0) =     -176.03841007


--------------------------------------------------------------------------------------------------------




--------------------------------------- Iteration      1(  11)  ---------------------------------------


    POTLOK:  cpu time      0.0040: real time      0.0042
    SETDIJ:  cpu time      0.0017: real time      0.0017
     EDDAV:  cpu time      3.5948: real time      3.6098
       DOS:  cpu time      0.0055: real time      0.0055
    CHARGE:  cpu time      0.0857: real time      0.0860
    MIXING:  cpu time      0.0003: real time      0.0003
    --------------------------------------------
      LOOP:  cpu time      3.6919: real time      3.7074

 eigenvalue-minimisations  : 20576
 total energy-change (2. order) : 0.5004079E-02  (-0.1239069E-01)
 number of electron     204.9999784 magnetization 
 augmentation part       36.1084092 magnetization 

 Broyden mixing:
  rms(total) = 0.54157E-01    rms(broyden)= 0.54078E-01
  rms(prec ) = 0.12635E+00
  weight for this iteration     100.00

 eigenvalues of (default mixing * dielectric matrix)
  average eigenvalue GAMMA=   1.0683
  2.5864  1.6669  0.8458  0.5662  0.3912  0.3530

 Free energy of the ion-electron system (eV)
  ---------------------------------------------------
  alpha Z        PSCENC =      1679.39699631
  Ewald energy   TEWEN  =    -20976.26106305
  -Hartree energ DENC   =     -3599.56968065
  -exchange      EXHF   =         0.00000000
  -V(xc)+E(xc)   XCENC  =       800.07051003
  PAW double counting   =     26232.01641207   -25952.93613037
  entropy T*S    EENTRO =        -0.00722467
  eigenvalues    EBANDS =     -2746.43876553
  atomic energy  EATOM  =     24387.69197969
  Solvation  Ediel_sol  =         0.00000000
  ---------------------------------------------------
  free energy    TOTEN  =      -176.03696618 eV

  energy without entropy =     -176.02974151  energy(sigma->0) =     -176.03335385


--------------------------------------------------------------------------------------------------------




--------------------------------------- Iteration      1(  12)  ---------------------------------------


    POTLOK:  cpu time      0.0046: real time      0.0047
    SETDIJ:  cpu time      0.0017: real time      0.0017
     EDDAV:  cpu time      3.6059: real time      3.6208
       DOS:  cpu time      0.0046: real time      0.0046
    CHARGE:  cpu time      0.0826: real time      0.0829
    MIXING:  cpu time      0.0003: real time      0.0003
    --------------------------------------------
      LOOP:  cpu time      3.6997: real time      3.7151

 eigenvalue-minimisations  : 20680
[...]
     25     -24.9047      2.00000
     26     -24.8208      2.00000
     27     -24.7970      2.00000
     28     -24.4639      2.00000
     29     -24.4239      2.00000
     30     -24.3806      2.00000
     31     -24.2880      2.00000
     32     -24.2325      2.00000
     33     -24.1949      2.00000
     34     -24.1561      2.00000
     35     -24.1319      2.00000
     36     -24.0795      2.00000
     37     -24.0194      2.00000
     38     -23.9746      2.00000
     39     -23.9411      2.00000
     40     -21.1686      2.00000
     41     -21.1421      2.00000
     42     -21.1285      2.00000
     43     -21.1074      2.00000
     44     -21.0941      2.00000
     45     -21.0837      2.00000
     46     -21.0232      2.00000
     47     -20.9951      2.00000
     48     -20.9242      2.00000
     49     -20.8145      2.00000
     50     -20.8061      2.00000
     51     -20.7830      2.00000
     52     -20.6402      2.00000
     53     -20.5877      2.00000
     54     -20.5719      2.00000
     55     -20.5400      2.00000
     56     -20.5254      2.00000
     57     -20.5103      2.00000
     58     -20.5053      2.00000
     59     -20.4847      2.00000
     60     -20.4622      2.00000
     61       4.6081      2.00000
     62       5.0774      2.00000
     63       5.5561      2.00000
     64       5.6044      2.00000
     65       6.0649      2.00000
     66       6.1109      2.00000
     67       6.3265      2.00000
     68       6.8773      2.00000
     69       6.9884      2.00000
     70       7.0099      2.00000
     71       7.0404      2.00000
     72       7.0944      2.00000
     73       7.1567      2.00000
     74       7.2537      2.00000
     75       7.2930      2.00000
     76       7.3119      2.00000
     77       7.3288      2.00000
     78       7.4251      2.00000
     79       7.4374      2.00000
     80       7.5030      2.00000
     81       7.7296      2.00000
     82       7.8016      2.00000
     83       7.8959      2.00000
     84       7.9476      2.00000
     85       7.9721      2.00000
     86       7.9923      2.00000
     87       8.0431      2.00000
     88       8.0742      2.00000
     89       8.0988      2.00000
     90       8.1209      2.00000
     91       8.1788      2.00000
     92       8.2051      2.00000
     93       8.2309      2.00000
     94       8.2466      2.00000
     95       8.2743      2.00000
     96       8.2995      2.00000
     97       8.3206      2.00000
     98       8.3672      2.00000
     99       8.3888      2.00000
    100       8.4084      2.00000
    101       8.4466      2.00000
    102       8.4913      2.00000
    103       8.5331      2.00000
    104       8.5742      2.00000
    105       8.6190      2.00000
    106       8.6619      2.00000
    107       8.6893      2.00000
    108       9.1134      2.00000
    109      11.6325      0.00000
    110      11.7322      0.00000
    111      11.9007      0.00000
    112      11.9094      0.00000
    113      12.0140      0.00000
    114      12.0937      0.00000
    115      12.1672      0.00000
    116      12.2150      0.00000
    117      12.2444      0.00000
    118      12.3367      0.00000
    119      12.4244      0.00000
    120      12.4501      0.00000
    121      12.5830      0.00000
    122      12.6133      0.00000
    123      12.6600      0.00000
    124      12.7692      0.00000

 k-point    63 :       0.4000   -0.4000    0.4000
  band No.  band energies     occupation 
      1     -63.9824      2.00000
      2     -50.9024      2.00000
      3     -50.8552      2.00000
      4     -50.8221      2.00000
      5     -50.7963      2.00000
      6     -44.7755      2.00000
      7     -44.7645      2.00000
      8     -44.7343      2.00000
      9     -44.6987      2.00000
     10     -44.6615      2.00000
     11     -44.6449      2.00000
     12     -44.6138      2.00000
     13     -28.2089      2.00000
     14     -28.2023      2.00000
     15     -28.1860      2.00000
     16     -25.1870      2.00000
     17     -25.1721      2.00000
     18     -25.1009      2.00000
     19     -25.0284      2.00000
     20     -25.0175      2.00000
     21     -25.0016      2.00000
     22     -24.9692      2.00000
     23     -24.9487      2.00000
     24     -24.9364      2.00000
     25     -24.9046      2.00000
     26     -24.8200      2.00000
     27     -24.7968      2.00000
     28     -24.4651      2.00000
     29     -24.4137      2.00000
     30     -24.3959      2.00000
     31     -24.2845      2.00000
     32     -24.2347      2.00000
     33     -24.1917      2.00000
     34     -24.1591      2.00000
     35     -24.1302      2.00000
     36     -24.0843      2.00000
     37     -24.0001      2.00000
     38     -23.9891      2.00000
     39     -23.9393      2.00000
     40     -21.1682      2.00000
     41     -21.1421      2.00000
     42     -21.1285      2.00000
     43     -21.1095      2.00000
     44     -21.0930      2.00000
     45     -21.0826      2.00000
     46     -21.0256      2.00000
     47     -20.9958      2.00000
     48     -20.9246      2.00000
     49     -20.8084      2.00000
     50     -20.8022      2.00000
     51     -20.7897      2.00000
     52     -20.6367      2.00000
     53     -20.5920      2.00000
     54     -20.5722      2.00000
     55     -20.5383      2.00000
     56     -20.5252      2.00000
     57     -20.5117      2.00000
     58     -20.5054      2.00000
     59     -20.4850      2.00000
     60     -20.4617      2.00000
     61       4.5825      2.00000
     62       5.1883      2.00000
     63       5.4270      2.00000
     64       5.6456      2.00000
     65       5.9605      2.00000
     66       6.2509      2.00000
     67       6.3008      2.00000
     68       6.8601      2.00000
     69       6.9803      2.00000
     70       7.0213      2.00000
     71       7.0697      2.00000
     72       7.1060      2.00000
     73       7.1319      2.00000
     74       7.2429      2.00000
     75       7.3003      2.00000
     76       7.3185      2.00000
     77       7.3631      2.00000
     78       7.4245      2.00000
     79       7.4494      2.00000
     80       7.4552      2.00000
     81       7.7378      2.00000
     82       7.7724      2.00000
     83       7.8716      2.00000
     84       7.9298      2.00000
     85       7.9741      2.00000
     86       8.0084      2.00000
     87       8.0346      2.00000
     88       8.0771      2.00000
     89       8.1013      2.00000
     90       8.1126      2.00000
     91       8.1676      2.00000
     92       8.2068      2.00000
     93       8.2429      2.00000
     94       8.2542      2.00000
     95       8.2723      2.00000
     96       8.3189      2.00000
     97       8.3293      2.00000
     98       8.3468      2.00000
     99       8.3927      2.00000
    100       8.4254      2.00000
    101       8.4496      2.00000
    102       8.4744      2.00000
    103       8.5646      2.00000
    104       8.5936      2.00000
    105       8.6144      2.00000
    106       8.6535      2.00000
    107       8.6807      2.00000
    108       9.1124      2.00000
    109      11.7017      0.00000
    110      11.7241      0.00000
    111      11.8406      0.00000
    112      11.8996      0.00000
    113      12.0426      0.00000
    114      12.1182      0.00000
    115      12.1860      0.00000
    116      12.2223      0.00000
    117      12.3030      0.00000
    118      12.3350      0.00000
    119      12.3784      0.00000
    120      12.4300      0.00000
    121      12.4603      0.00000
    122      12.5718      0.00000
    123      12.5994      0.00000
    124      12.7116      0.00000


--------------------------------------------------------------------------------------------------------


 soft charge-density along one line, spin component           1
         0         1         2         3         4         5         6         7         8         9
 total charge-density along one line
 
 pseudopotential strength for first ion, spin component:           1
  5.723 -20.222   0.002   0.001   0.002  -0.004  -0.001  -0.004
-20.222   9.146   0.003   0.001   0.002  -0.000  -0.000  -0.000
  0.002   0.003  -9.745  -0.001  -0.002   5.968   0.001   0.002
  0.001   0.001  -0.001  -9.744  -0.001   0.001   5.967   0.001
  0.002   0.002  -0.002  -0.001  -9.747   0.002   0.001   5.969
 -0.004  -0.000   5.968   0.001   0.002   7.967  -0.001  -0.001
 -0.001  -0.000   0.001   5.967   0.001  -0.001   7.968  -0.001
 -0.004  -0.000   0.002   0.001   5.969  -0.001  -0.001   7.967
 -0.001  -0.001   0.001   0.000   0.002  -0.002  -0.000  -0.002
 -0.001  -0.000   0.001   0.002   0.000  -0.001  -0.002  -0.000
  0.001   0.000  -0.001   0.001  -0.001   0.001  -0.001   0.001
 -0.001  -0.000   0.000   0.001   0.001  -0.000  -0.002  -0.001
 -0.000  -0.000  -0.001   0.000   0.001   0.002  -0.000  -0.001
 -0.002  -0.001   0.002   0.000   0.002  -0.003  -0.000  -0.003
 -0.001  -0.001   0.001   0.002   0.000  -0.001  -0.003  -0.000
  0.001   0.000  -0.001   0.001  -0.001   0.001  -0.001   0.001
 -0.001  -0.000   0.000   0.002   0.001  -0.000  -0.003  -0.001
 -0.001  -0.000  -0.002   0.000   0.002   0.002  -0.000  -0.002
 total augmentation occupancy for first ion, spin component:           1
  1.995  -0.045  -0.000   0.000  -0.000  -0.000   0.000  -0.000  -0.008  -0.001   0.001  -0.001  -0.001   0.006   0.001  -0.001
 -0.045   1.361  -0.002   0.002  -0.002  -0.002  -0.002  -0.001  -0.027  -0.005   0.018  -0.007  -0.032   0.011   0.005  -0.008
 -0.000  -0.002   1.996  -0.000   0.000  -0.027   0.000  -0.001  -0.009   0.006  -0.001  -0.000  -0.002   0.006  -0.004   0.001
  0.000   0.002  -0.000   1.996  -0.000   0.000  -0.028   0.000  -0.000  -0.008   0.004  -0.009  -0.000   0.000   0.005  -0.003
 -0.000  -0.002   0.000  -0.000   1.996  -0.001   0.000  -0.027  -0.008  -0.000  -0.001   0.006   0.001   0.005   0.000   0.000
 -0.000  -0.002  -0.027   0.000  -0.001   0.065  -0.000   0.002   0.007  -0.014   0.005   0.002   0.008  -0.005   0.008  -0.002
  0.000  -0.002   0.000  -0.028   0.000  -0.000   0.067  -0.000   0.002   0.006  -0.002   0.007  -0.000  -0.002  -0.005   0.001
 -0.000  -0.001  -0.001   0.000  -0.027   0.002  -0.000   0.063   0.007   0.002   0.005  -0.014  -0.008  -0.005  -0.002  -0.002
 -0.008  -0.027  -0.009  -0.000  -0.008   0.007   0.002   0.007   3.331  -0.038   0.065  -0.039   0.005  -1.395   0.019  -0.029
 -0.001  -0.005   0.006  -0.008  -0.000  -0.014   0.006   0.002  -0.038   3.301  -0.006  -0.027   0.007   0.019  -1.389   0.003
  0.001   0.018  -0.001   0.004  -0.001   0.005  -0.002   0.005   0.065  -0.006   2.837  -0.004   0.043  -0.028   0.003  -1.288
 -0.001  -0.007  -0.000  -0.009   0.006   0.002   0.007  -0.014  -0.039  -0.027  -0.004   3.327  -0.007   0.019   0.007   0.003
 -0.001  -0.032  -0.002  -0.000   0.001   0.008  -0.000  -0.008   0.005   0.007   0.043  -0.007   2.787  -0.002  -0.004  -0.020
  0.006   0.011   0.006   0.000   0.005  -0.005  -0.002  -0.005  -1.395   0.019  -0.028   0.019  -0.002   0.595  -0.010   0.013
  0.001   0.005  -0.004   0.005   0.000   0.008  -0.005  -0.002   0.019  -1.389   0.003   0.007  -0.004  -0.010   0.595  -0.002
 -0.001  -0.008   0.001  -0.003   0.000  -0.002   0.001  -0.002  -0.029   0.003  -1.288   0.003  -0.020   0.013  -0.002   0.592
  0.001   0.006   0.000   0.006  -0.004  -0.002  -0.005   0.008   0.019   0.007   0.002  -1.393   0.004  -0.010  -0.001  -0.002
  0.001   0.016   0.001   0.000  -0.001  -0.003   0.000   0.003  -0.002  -0.004  -0.020   0.004  -1.265   0.001   0.002   0.009


------------------------ aborting loop because EDIFF is reached ----------------------------------------


    CHARGE:  cpu time      0.0856: real time      0.0860
    FORLOC:  cpu time      0.0005: real time      0.0005
    FORNL :  cpu time      0.7992: real time      0.8020
    STRESS:  cpu time      0.9864: real time      0.9899
    FORCOR:  cpu time      0.0047: real time      0.0047
    FORHAR:  cpu time      0.0014: real time      0.0014
    MIXING:  cpu time      0.0009: real time      0.0009
    OFIELD:  cpu time      0.0000: real time      0.0000

  FORCE on cell =-STRESS in cart. coord.  units (eV):
  Direction    XX          YY          ZZ          XY          YZ          ZX
  --------------------------------------------------------------------------------------
  Alpha Z  1679.39700  1679.39700  1679.39700
  Ewald   -6993.00440 -6983.20842 -7000.11488    31.61524    -0.00000    -0.00000
  Hartree  1199.52752  1209.38989  1191.60063    30.06489     0.35630    -0.13045
  E(xc)    -935.68117  -935.68533  -935.70929    -0.06606    -0.00053     0.00388
  Local    1531.42290  1512.84214  1548.19077   -59.72307    -0.64366    -0.00393
  n-local  -386.15643  -387.93311  -389.31444    -0.31850    -0.03328     0.04118
  augment   418.46865   418.51454   418.57188    -0.34456     0.03005     0.02828
  Kinetic  3467.53007  3467.45814  3468.03321    -0.57255     0.32907    -0.03508
  Fock        0.00000     0.00000     0.00000     0.00000     0.00000     0.00000
  -------------------------------------------------------------------------------------
  Total     -18.49586   -19.22516   -19.34511     0.65538     0.03795    -0.09612
  in kB    -104.01774  -108.11919  -108.79379     3.68578     0.21342    -0.54057
  external pressure =     -106.98 kB  Pullay stress =        0.00 kB


 VOLUME and BASIS-vectors are now :
 -----------------------------------------------------------------------------
  energy-cutoff  :      250.00
  volume of cell :      284.89
      direct lattice vectors                 reciprocal lattice vectors
     6.580000000  0.000000000  0.000000000     0.151975684  0.000000000  0.000000000
     0.000000000  6.580000000  0.000000000     0.000000000  0.151975684  0.000000000
     0.000000000  0.000000000  6.580000000     0.000000000  0.000000000  0.151975684

  length of vectors
     6.580000000  6.580000000  6.580000000     0.151975684  0.151975684  0.151975684


 FORCES acting on ions
    electron-ion (+dipol)            ewald-force                    non-local-force                 convergence-correction
 -----------------------------------------------------------------------------------------------
   0.209E+02 0.209E+02 0.407E+02   -.204E+02 -.204E+02 -.408E+02   -.158E+00 -.139E+00 0.198E+00   -.134E-05 0.105E-04 -.110E-04
   -.313E+02 -.104E+02 0.512E+02   0.306E+02 0.102E+02 -.510E+02   0.643E-01 0.176E-01 0.889E-01   -.131E-04 0.223E-04 -.286E-04
   0.209E+02 -.209E+02 0.407E+02   -.204E+02 0.204E+02 -.408E+02   -.125E+00 0.782E-01 0.230E+00   -.266E-05 -.224E-04 -.174E-04
   -.313E+02 -.104E+02 -.512E+02   0.306E+02 0.102E+02 0.510E+02   0.776E-01 0.140E-01 -.114E+00   -.213E-04 0.211E-04 0.243E-04
   0.313E+02 -.104E+02 -.512E+02   -.306E+02 0.102E+02 0.510E+02   -.613E-01 0.201E-01 -.137E+00   0.396E-04 0.220E-04 0.331E-04
   0.209E+02 0.209E+02 -.407E+02   -.204E+02 -.204E+02 0.408E+02   -.905E-01 -.929E-01 -.187E+00   -.440E-05 0.141E-04 0.162E-04
   -.313E+02 0.104E+02 -.512E+02   0.306E+02 -.102E+02 0.510E+02   0.116E+00 -.127E-02 -.150E+00   -.155E-04 -.150E-04 0.321E-04
   -.224E+02 0.223E+02 0.437E+02   0.220E+02 -.220E+02 -.439E+02   0.785E-02 -.401E-01 0.176E+00   -.532E-05 -.485E-05 -.158E-04
   -.224E+02 -.224E+02 0.437E+02   0.220E+02 0.220E+02 -.439E+02   0.103E+00 0.107E+00 0.175E+00   0.833E-05 0.420E-05 -.137E-04
   0.334E+02 0.111E+02 -.550E+02   -.329E+02 -.110E+02 0.549E+02   -.354E-03 0.126E-01 -.931E-01   0.915E-05 -.253E-04 0.342E-04
   -.223E+02 -.223E+02 -.437E+02   0.220E+02 0.220E+02 0.439E+02   0.799E-02 0.192E-01 -.165E+00   -.160E-05 0.403E-05 0.137E-04
   -.267E+02 0.891E+01 0.433E+02   0.259E+02 -.863E+01 -.431E+02   0.547E-01 -.933E-02 0.107E+00   -.966E-05 -.901E-05 -.297E-04
   0.178E+02 -.178E+02 -.345E+02   -.173E+02 0.173E+02 0.345E+02   -.101E+00 0.396E-01 -.131E+00   -.487E-05 -.164E-04 0.111E-04
   -.179E+02 0.178E+02 -.345E+02   0.173E+02 -.173E+02 0.345E+02   0.464E-01 -.111E+00 -.131E+00   -.709E-05 -.370E-05 0.108E-04
   0.267E+02 -.890E+01 0.433E+02   -.259E+02 0.863E+01 -.431E+02   0.249E-01 0.459E-01 0.888E-01   0.327E-04 0.196E-04 -.320E-04
   0.335E+02 0.111E+02 0.551E+02   -.329E+02 -.110E+02 -.549E+02   0.953E-01 0.309E-01 0.448E-01   0.602E-05 -.246E-04 -.308E-04
 -----------------------------------------------------------------------------------------------
   -.623E-01 0.823E-02 -.116E-02   0.114E-12 0.163E-12 -.142E-13   0.623E-01 -.823E-02 0.118E-02   0.897E-05 -.352E-05 -.367E-05
 
 
 POSITION                                       TOTAL-FORCE (eV/Angst)
 -----------------------------------------------------------------------------------
      0.00000      3.29000      0.00000         0.340558      0.377771      0.131672
      4.93500      1.64500      4.93500        -0.600855     -0.179909      0.287446
      0.00000      0.00000      0.00000         0.355468     -0.434285      0.156206
      4.93500      1.64500      1.64500        -0.586770     -0.186582     -0.305933
      1.64500      1.64500      1.64500         0.684428     -0.184990     -0.300043
      0.00000      3.29000      3.29000         0.395008      0.379968     -0.103915
      4.93500      4.93500      1.64500        -0.588380      0.241527     -0.323951
      3.29000      3.29000      0.00000        -0.392155      0.329626     -0.034624
      3.29000      0.00000      0.00000        -0.354248     -0.343230     -0.007198
      1.64500      4.93500      1.64500         0.497612      0.149887     -0.160192
      3.29000      0.00000      3.29000        -0.365128     -0.336584      0.037627
      4.93500      4.93500      4.93500        -0.736467      0.269161      0.299014
      0.00000      0.00000      3.29000         0.446578     -0.520288     -0.067728
      3.29000      3.29000      3.29000        -0.565398      0.476061     -0.094498
      1.64500      1.64500      4.93500         0.842142     -0.226569      0.291358
      1.64500      4.93500      4.93500         0.627607      0.188435      0.194759
 -----------------------------------------------------------------------------------
    total drift:                                0.000004     -0.000001      0.000016


--------------------------------------------------------------------------------------------------------



  FREE ENERGIE OF THE ION-ELECTRON SYSTEM (eV)
  ---------------------------------------------------
  free  energy   TOTEN  =      -176.03143293 eV

  energy  without entropy=     -176.02441738  energy(sigma->0) =     -176.02792516
 


--------------------------------------------------------------------------------------------------------


    POTLOK:  cpu time      0.0061: real time      0.0061


--------------------------------------------------------------------------------------------------------


     LOOP+:  cpu time     94.5046: real time     95.1028
    4ORBIT:  cpu time      0.0000: real time      0.0000

 total amount of memory used by VASP MPI-rank0    47987. kBytes
=======================================================================

   base      :      30000. kBytes
   nonl-proj :       8332. kBytes
   fftplans  :        456. kBytes
   grid      :        919. kBytes
   one-center:         31. kBytes
   wavefun   :       8249. kBytes
 
  
  
 General timing and accounting informations for this job:
 ========================================================
  
                  Total CPU time used (sec):       97.641
                            User time (sec):       96.470
                          System time (sec):        1.171
                         Elapsed time (sec):       99.273
  
                   Maximum memory used (kb):       90728.
                   Average memory used (kb):          N/A
  
                          Minor page faults:        10420
                          Major page faults:            0
                 Voluntary context switches:          302
