 vasp.6.3.1 04May22 (build Jul 26 2022 04:02:40) complex                        
  
 executed on             LinuxIFC date 2023.11.30  10:39:38
 running on   48 total cores
 distrk:  each k-point on   48 cores,    1 groups
 distr:  one band on NCORE=  12 cores,    4 groups


--------------------------------------------------------------------------------------------------------


 INCAR:
   ISTART = 0
   NWRITE = 2
   PREC = Accurate
   ENCUT = 250
   GGA = PE
   NSW = 0
   ISIF = 2
   ISYM = 2
   NBLOCK = 1
   KBLOCK = 1
   IBRION = -1
   NELM = 80
   EDIFF = 1E-08
   EDIFFG = -0.01
   ALGO = Normal
   LDIAG = .TRUE.
   LREAL = .FALSE.
   ISMEAR = 0
   SIGMA = 0.02
   ICHARG = 2
   LPLANE = .TRUE.
   NPAR = 4
   LSCALU = .FALSE.
   NSIM = 4
   LWAVE = .FALSE.
   LCHARG = .FALSE.
   ICORELEVEL = 1

 POTCAR:    PAW_PBE Nb_sv 25May2007               
 POTCAR:    PAW_PBE Mo_sv 02Feb2006               
 POTCAR:    PAW_PBE Ta_pv 07Sep2000               
 POTCAR:    PAW_PBE W_sv 04Sep2015                
 POTCAR:    PAW_PBE Nb_sv 25May2007               
   SHA256 =  0e8fc07c9fcd1164cf2ade22d0399fd28f85e91cd773dfa6cf24839a48c95e24 Nb_sv/POTCAR          
   COPYR  = (c) Copyright 25May2007 Georg Kresse                                                    
   COPYR  = This file is part of the software VASP. Any use, copying, and all other rights are regul
   COPYR  = If you do not have a valid VASP license, you may not use, copy or distribute this file. 
   VRHFIN =Nb: 4p5s4d                                                                               
   LEXCH  = PE                                                                                      
   EATOM  =  1555.1913 eV,  114.3033 Ry                                                             
                                                                                                    
   TITEL  = PAW_PBE Nb_sv 25May2007                                                                 
   LULTRA =        F    use ultrasoft PP ?                                                          
   IUNSCR =        1    unscreen: 0-lin 1-nonlin 2-no                                               
   RPACOR =    1.800    partial core radius                                                         
   POMASS =   92.910; ZVAL   =   13.000    mass and valenz                                          
   RCORE  =    2.400    outmost cutoff radius                                                       
   RWIGS  =    2.400; RWIGS  =    1.270    wigner-seitz radius (au A)                               
   ENMAX  =  293.235; ENMIN  =  219.927 eV                                                          
   ICORE  =        3    local potential                                                             
   LCOR   =        T    correct aug charges                                                         
   LPAW   =        T    paw PP                                                                      
   EAUG   =  455.659                                                                                
   DEXC   =    0.000                                                                                
   RMAX   =    2.456    core radius for proj-oper                                                   
   RAUG   =    1.300    factor for augmentation sphere                                              
   RDEP   =    2.451    radius for radial grids                                                     
   RDEPT  =    1.956    core radius for aug-charge                                                  
                                                                                                    
   Atomic configuration                                                                             
   11 entries                                                                                       
     n  l   j            E        occ.                                                              
     1  0  0.50    -18805.2457   2.0000                                                             
     2  0  0.50     -2630.2869   2.0000                                                             
     2  1  1.50     -2348.4046   6.0000                                                             
     3  0  0.50      -438.8757   2.0000                                                             
     3  1  1.50      -346.7588   6.0000                                                             
     3  2  2.50      -196.2560  10.0000                                                             
     4  0  0.50       -58.3859   2.0000                                                             
     5  0  0.50        -3.9816   1.0000                                                             
     4  1  1.50       -34.5141   6.0000                                                             
     4  2  2.50        -3.0408   4.0000                                                             
     4  3  2.50        -1.3606   0.0000                                                             
   Description                                                                                      
     l       E           TYP  RCUT    TYP  RCUT                                                     
     0    -58.3859094     23  2.200                                                                 
     0     -3.9816262     23  2.200                                                                 
     1    -34.5140738     23  2.200                                                                 
     1     13.6058260     23  2.200                                                                 
     2     -3.0408010     23  2.200                                                                 
     2     -0.1283038     23  2.200                                                                 
     3     -1.3605826     23  2.400                                                                 
  local pseudopotential read in
  partial core-charges read in
  partial kinetic energy density read in
  atomic valenz-charges read in
  non local Contribution for L=           0  read in
    real space projection operators read in
  non local Contribution for L=           0  read in
    real space projection operators read in
  non local Contribution for L=           1  read in
    real space projection operators read in
  non local Contribution for L=           1  read in
    real space projection operators read in
  non local Contribution for L=           2  read in
    real space projection operators read in
  non local Contribution for L=           2  read in
    real space projection operators read in
    PAW grid and wavefunctions read in
 
   number of l-projection  operators is LMAX  =           6
   number of lm-projection operators is LMMAX =          18
 
 POTCAR:    PAW_PBE Mo_sv 02Feb2006               
   SHA256 =  2731df97e41766cc617548c5a8267718fdef1f509ac6bafa01e745abea2bdfaa Mo_sv/POTCAR          
   COPYR  = (c) Copyright 02Feb2006 Georg Kresse                                                    
   COPYR  = This file is part of the software VASP. Any use, copying, and all other rights are regul
   COPYR  = If you do not have a valid VASP license, you may not use, copy or distribute this file. 
   VRHFIN =Mo: 4p5s4d                                                                               
   LEXCH  = PE                                                                                      
   EATOM  =  1862.2866 eV,  136.8742 Ry                                                             
                                                                                                    
   TITEL  = PAW_PBE Mo_sv 02Feb2006                                                                 
   LULTRA =        F    use ultrasoft PP ?                                                          
   IUNSCR =        1    unscreen: 0-lin 1-nonlin 2-no                                               
   RPACOR =    2.200    partial core radius                                                         
   POMASS =   95.940; ZVAL   =   14.000    mass and valenz                                          
   RCORE  =    2.500    outmost cutoff radius                                                       
   RWIGS  =    2.750; RWIGS  =    1.455    wigner-seitz radius (au A)                               
   ENMAX  =  242.676; ENMIN  =  182.007 eV                                                          
   ICORE  =        3    local potential                                                             
   LCOR   =        T    correct aug charges                                                         
   LPAW   =        T    paw PP                                                                      
   EAUG   =  446.014                                                                                
   DEXC   =    0.000                                                                                
   RMAX   =    2.563    core radius for proj-oper                                                   
   RAUG   =    1.300    factor for augmentation sphere                                              
   RDEP   =    2.641    radius for radial grids                                                     
   RDEPT  =    2.031    core radius for aug-charge                                                  
                                                                                                    
   Atomic configuration                                                                             
   11 entries                                                                                       
     n  l   j            E        occ.                                                              
     1  0  0.50    -19819.0341   2.0000                                                             
     2  0  0.50     -2799.0127   2.0000                                                             
     2  1  1.50     -2502.0276   6.0000                                                             
     3  0  0.50      -476.4449   2.0000                                                             
     3  1  1.50      -379.1496   6.0000                                                             
     3  2  2.50      -220.9367  10.0000                                                             
     4  0  0.50       -64.3378   2.0000                                                             
     5  0  0.50        -4.0862   1.0000                                                             
     4  1  1.50       -38.4773   6.0000                                                             
     4  2  2.50        -3.7535   5.0000                                                             
     4  3  2.50        -1.3606   0.0000                                                             
   Description                                                                                      
     l       E           TYP  RCUT    TYP  RCUT                                                     
     0    -64.3377829     23  2.100                                                                 
     0     -4.0861640     23  2.400                                                                 
     1    -38.4772993     23  2.100                                                                 
     1     13.6058260     23  2.100                                                                 
     2     -3.7534941     23  2.400                                                                 
     2     -5.1140767     23  2.400                                                                 
     3     -4.0817478     23  2.500                                                                 
  local pseudopotential read in
  partial core-charges read in
  partial kinetic energy density read in
  atomic valenz-charges read in
  non local Contribution for L=           0  read in
    real space projection operators read in
  non local Contribution for L=           0  read in
    real space projection operators read in
  non local Contribution for L=           1  read in
    real space projection operators read in
  non local Contribution for L=           1  read in
    real space projection operators read in
  non local Contribution for L=           2  read in
    real space projection operators read in
  non local Contribution for L=           2  read in
    real space projection operators read in
    PAW grid and wavefunctions read in
 
   number of l-projection  operators is LMAX  =           6
   number of lm-projection operators is LMMAX =          18
 
 POTCAR:    PAW_PBE Ta_pv 07Sep2000               
   SHA256 =  00d0a14a36c127416459414afb8617d9754996fffa60a2465888e660b20a452f Ta_pv/POTCAR          
   COPYR  = (c) Copyright 07Sep2000 Georg Kresse                                                    
   COPYR  = This file is part of the software VASP. Any use, copying, and all other rights are regul
   COPYR  = If you do not have a valid VASP license, you may not use, copy or distribute this file. 
   VRHFIN =Ta:  5p6s5d                                                                              
   LEXCH  = PE                                                                                      
   EATOM  =  1047.1984 eV,   76.9669 Ry                                                             
                                                                                                    
   TITEL  = PAW_PBE Ta_pv 07Sep2000                                                                 
   LULTRA =        F    use ultrasoft PP ?                                                          
   IUNSCR =        1    unscreen: 0-lin 1-nonlin 2-no                                               
   RPACOR =    2.330    partial core radius                                                         
   POMASS =  180.948; ZVAL   =   11.000    mass and valenz                                          
   RCORE  =    2.500    outmost cutoff radius                                                       
   RWIGS  =    2.840; RWIGS  =    1.503    wigner-seitz radius (au A)                               
   ENMAX  =  223.667; ENMIN  =  167.750 eV                                                          
   RCLOC  =    2.205    cutoff for local pot                                                        
   LCOR   =        T    correct aug charges                                                         
   LPAW   =        T    paw PP                                                                      
   EAUG   =  377.421                                                                                
   DEXC   =    0.000                                                                                
   RMAX   =    2.551    core radius for proj-oper                                                   
   RAUG   =    1.300    factor for augmentation sphere                                              
   RDEP   =    2.526    radius for radial grids                                                     
   RDEPT  =    2.132    core radius for aug-charge                                                  
                                                                                                    
   Atomic configuration                                                                             
   15 entries                                                                                       
     n  l   j            E        occ.                                                              
     1  0  0.50    -67341.2801   2.0000                                                             
     2  0  0.50    -11566.9369   2.0000                                                             
     2  1  1.50    -10134.1175   6.0000                                                             
     3  0  0.50     -2648.5614   2.0000                                                             
     3  1  1.50     -2222.6006   6.0000                                                             
     3  2  2.50     -1726.3114  10.0000                                                             
     4  0  0.50      -538.6957   2.0000                                                             
     4  1  1.50      -399.0125   6.0000                                                             
     4  2  2.50      -220.3955  10.0000                                                             
     4  3  3.50       -23.0371  14.0000                                                             
     5  0  0.50       -71.2900   2.0000                                                             
     5  1  1.50       -37.8224   6.0000                                                             
     5  2  2.50        -2.6455   4.0000                                                             
     6  0  0.50        -4.9623   1.0000                                                             
     5  3  2.50        -1.3606   0.0000                                                             
   Description                                                                                      
     l       E           TYP  RCUT    TYP  RCUT                                                     
     1    -37.8224449     23  2.500                                                                 
     1      1.3605826     23  2.500                                                                 
     2     -2.6454718     23  2.500                                                                 
     2     -0.6258570     23  2.500                                                                 
     0     -4.9622674     23  2.500                                                                 
     0      4.7531427     23  2.500                                                                 
  local pseudopotential read in
  partial core-charges read in
  partial kinetic energy density read in
  atomic valenz-charges read in
  non local Contribution for L=           1  read in
    real space projection operators read in
  non local Contribution for L=           1  read in
    real space projection operators read in
  non local Contribution for L=           2  read in
    real space projection operators read in
  non local Contribution for L=           2  read in
    real space projection operators read in
  non local Contribution for L=           0  read in
    real space projection operators read in
  non local Contribution for L=           0  read in
    real space projection operators read in
    PAW grid and wavefunctions read in
 
   number of l-projection  operators is LMAX  =           6
   number of lm-projection operators is LMMAX =          18
 
 POTCAR:    PAW_PBE W_sv 04Sep2015                
   SHA256 =  931c2d770f65867ef30f3db3421922900fc0890ebac5c3e12f63b6a2064023d7 W_sv/POTCAR           
   COPYR  = (c) Copyright 04Sep2015 Georg Kresse                                                    
   COPYR  = This file is part of the software VASP. Any use, copying, and all other rights are regul
   COPYR  = If you do not have a valid VASP license, you may not use, copy or distribute this file. 
   VRHFIN =W : 5p6s5d                                                                               
   LEXCH  = PE                                                                                      
   EATOM  =  1865.5791 eV,  137.1162 Ry                                                             
                                                                                                    
   TITEL  = PAW_PBE W_sv 04Sep2015                                                                  
   LULTRA =        F    use ultrasoft PP ?                                                          
   IUNSCR =        1    unscreen: 0-lin 1-nonlin 2-no                                               
   RPACOR =    2.330    partial core radius                                                         
   POMASS =  183.850; ZVAL   =   14.000    mass and valenz                                          
   RCORE  =    2.500    outmost cutoff radius                                                       
   RWIGS  =    2.750; RWIGS  =    1.455    wigner-seitz radius (au A)                               
   ENMAX  =  223.057; ENMIN  =  167.293 eV                                                          
   ICORE  =        3    local potential                                                             
   LCOR   =        T    correct aug charges                                                         
   LPAW   =        T    paw PP                                                                      
   EAUG   =  373.438                                                                                
   DEXC   =    0.000                                                                                
   RMAX   =    2.565    core radius for proj-oper                                                   
   RAUG   =    1.300    factor for augmentation sphere                                              
   RDEP   =    2.539    radius for radial grids                                                     
   RDEPT  =    2.126    core radius for aug-charge                                                  
                                                                                                    
   Atomic configuration                                                                             
   15 entries                                                                                       
     n  l   j            E        occ.                                                              
     1  0  0.50    -69465.5834   2.0000                                                             
     2  0  0.50    -11986.2640   2.0000                                                             
     2  1  1.50    -10479.8613   6.0000                                                             
     3  0  0.50     -2759.0756   2.0000                                                             
     3  1  1.50     -2313.1855   6.0000                                                             
     3  2  2.50     -1801.1183  10.0000                                                             
     4  0  0.50      -567.6789   2.0000                                                             
     4  1  1.50      -421.4692   6.0000                                                             
     4  2  2.50      -236.3471  10.0000                                                             
     4  3  3.50       -31.2665  14.0000                                                             
     5  0  0.50       -77.1084   2.0000                                                             
     6  0  0.50        -5.1438   1.0000                                                             
     5  1  1.50       -41.3856   6.0000                                                             
     5  2  2.50        -3.3185   5.0000                                                             
     5  3  2.50        -1.3606   0.0000                                                             
   Description                                                                                      
     l       E           TYP  RCUT    TYP  RCUT                                                     
     0    -77.1084470     23  2.100                                                                 
     0     -5.1437956     23  2.300                                                                 
     1    -41.3855615     23  2.500                                                                 
     1     -2.7211652     23  2.500                                                                 
     2     -3.3185025     23  2.500                                                                 
     2     -1.5965151     23  2.500                                                                 
     3     -1.3605826     23  2.500                                                                 
  local pseudopotential read in
  partial core-charges read in
  partial kinetic energy density read in
  kinetic energy density of atom read in
  atomic valenz-charges read in
  non local Contribution for L=           0  read in
    real space projection operators read in
  non local Contribution for L=           0  read in
    real space projection operators read in
  non local Contribution for L=           1  read in
    real space projection operators read in
  non local Contribution for L=           1  read in
    real space projection operators read in
  non local Contribution for L=           2  read in
    real space projection operators read in
  non local Contribution for L=           2  read in
    real space projection operators read in
    PAW grid and wavefunctions read in
 
   number of l-projection  operators is LMAX  =           6
   number of lm-projection operators is LMMAX =          18
 
 -----------------------------------------------------------------------------
|                                                                             |
|               ----> ADVICE to this user running VASP <----                  |
|                                                                             |
|     You have a (more or less) 'large supercell' and for larger cells it     |
|     might be more efficient to use real-space projection operators.         |
|     Therefore, try LREAL= Auto in the INCAR file.                           |
|     Mind: For very accurate calculation, you might also keep the            |
|     reciprocal projection scheme (i.e. LREAL=.FALSE.).                      |
|                                                                             |
 -----------------------------------------------------------------------------

  PAW_PBE Nb_sv 25May2007               :
 energy of atom  1       EATOM=-1555.1913
 kinetic energy error for atom=    0.2155 (will be added to EATOM!!)
  PAW_PBE Mo_sv 02Feb2006               :
 energy of atom  2       EATOM=-1862.2866
 kinetic energy error for atom=    0.1102 (will be added to EATOM!!)
  PAW_PBE Ta_pv 07Sep2000               :
 energy of atom  3       EATOM=-1047.1984
 kinetic energy error for atom=    0.0394 (will be added to EATOM!!)
  PAW_PBE W_sv 04Sep2015                :
 energy of atom  4       EATOM=-1865.5791
 kinetic energy error for atom=    0.0589 (will be added to EATOM!!)
 
 
 POSCAR: Nb-Mo-Ta-W alloy
  positions in direct lattice
  No initial velocities read in
 exchange correlation table for  LEXCH =        8
   RHO(1)=    0.500       N(1)  =     2000
   RHO(2)=  100.500       N(2)  =     4000
 


--------------------------------------------------------------------------------------------------------


 ion  position               nearest neighbor table
   1  0.750  0.500  0.000-   4 2.85   9 2.85  14 2.85  15 2.85  16 2.85  18 2.85  19 2.85  32 2.85
                            20 3.29
   2  0.750  0.000  0.000-   4 2.85   9 2.85  14 2.85  15 2.85  16 2.85  18 2.85  19 2.85  32 2.85

   3  0.125  0.750  0.250-   6 2.85   7 2.85  12 2.85  20 2.85  22 2.85  27 2.85  30 2.85  31 2.85

   4  0.625  0.750  0.250-   1 2.85   2 2.85   5 2.85   8 2.85  11 2.85  17 2.85  24 2.85  29 2.85
                            19 3.29  19 3.29
   5  0.500  0.500  0.000-   4 2.85  14 2.85  18 2.85  19 2.85  21 2.85  25 2.85  26 2.85  28 2.85
                            17 3.29  17 3.29
   6  0.250  0.000  0.500-   3 2.85  10 2.85  13 2.85  21 2.85  23 2.85  25 2.85  26 2.85  28 2.85
                            11 3.29  12 3.29  30 3.29  31 3.29  12 3.29  30 3.29
   7  0.000  0.000  0.000-   3 2.85   9 2.85  10 2.85  13 2.85  15 2.85  16 2.85  23 2.85  32 2.85
                            12 3.29  31 3.29  20 3.29  31 3.29  20 3.29
   8  0.750  0.000  0.500-   4 2.85   9 2.85  14 2.85  15 2.85  16 2.85  18 2.85  19 2.85  32 2.85
                            29 3.29  31 3.29  11 3.29  29 3.29
   9  0.875  0.750  0.250-   1 2.85   2 2.85   7 2.85   8 2.85  20 2.85  27 2.85  29 2.85  31 2.85
                            16 3.29  32 3.29  32 3.29  16 3.29
  10  0.125  0.250  0.250-   6 2.85   7 2.85  12 2.85  20 2.85  22 2.85  27 2.85  30 2.85  31 2.85
                            13 3.29  16 3.29  25 3.29  13 3.29
  11  0.500  0.000  0.500-   4 2.85  14 2.85  18 2.85  19 2.85  21 2.85  25 2.85  26 2.85  28 2.85
                            24 3.29   8 3.29   6 3.29  17 3.29  24 3.29  17 3.29
  12  0.250  0.000  0.000-   3 2.85  10 2.85  13 2.85  21 2.85  23 2.85  25 2.85  26 2.85  28 2.85
                            24 3.29   6 3.29  22 3.29   7 3.29   6 3.29  22 3.29
  13  0.125  0.250  0.750-   6 2.85   7 2.85  12 2.85  20 2.85  22 2.85  27 2.85  30 2.85  31 2.85
                            23 3.29  10 3.29  21 3.29  15 3.29  10 3.29  23 3.29
  14  0.625  0.250  0.250-   1 2.85   2 2.85   5 2.85   8 2.85  11 2.85  17 2.85  24 2.85  29 2.85
                            16 3.29  25 3.29  18 3.29  18 3.29
  15  0.875  0.250  0.750-   1 2.85   2 2.85   7 2.85   8 2.85  20 2.85  27 2.85  29 2.85  31 2.85
                            16 3.29  18 3.29  13 3.29  32 3.29  16 3.29  32 3.29
  16  0.875  0.250  0.250-   1 2.85   2 2.85   7 2.85   8 2.85  20 2.85  27 2.85  29 2.85  31 2.85
                             9 3.29  10 3.29  14 3.29  15 3.29  15 3.29   9 3.29
  17  0.500  0.500  0.500-   4 2.85  14 2.85  18 2.85  19 2.85  21 2.85  25 2.85  26 2.85  28 2.85
                            11 3.29   5 3.29  29 3.29  30 3.29   5 3.29  11 3.29
  18  0.625  0.250  0.750-   1 2.85   2 2.85   5 2.85   8 2.85  11 2.85  17 2.85  24 2.85  29 2.85
                            19 3.29  21 3.29  15 3.29  14 3.29  14 3.29  19 3.29
  19  0.625  0.750  0.750-   1 2.85   2 2.85   5 2.85   8 2.85  11 2.85  17 2.85  24 2.85  29 2.85
                             4 3.29  28 3.29  18 3.29  32 3.29   4 3.29  18 3.29
  20  0.000  0.500  0.000-   3 2.85   9 2.85  10 2.85  13 2.85  15 2.85  16 2.85  23 2.85  32 2.85
                            22 3.29   7 3.29  27 3.29   1 3.29  27 3.29   7 3.29
  21  0.375  0.250  0.750-   5 2.85   6 2.85  11 2.85  12 2.85  17 2.85  22 2.85  24 2.85  30 2.85
                            18 3.29  25 3.29  28 3.29  13 3.29  25 3.29  28 3.29
  22  0.250  0.500  0.000-   3 2.85  10 2.85  13 2.85  21 2.85  23 2.85  25 2.85  26 2.85  28 2.85
                            20 3.29  12 3.29  30 3.29  30 3.29  12 3.29
  23  0.125  0.750  0.750-   6 2.85   7 2.85  12 2.85  20 2.85  22 2.85  27 2.85  30 2.85  31 2.85
                            13 3.29  28 3.29  32 3.29  13 3.29
  24  0.500  0.000  0.000-   4 2.85  14 2.85  18 2.85  19 2.85  21 2.85  25 2.85  26 2.85  28 2.85
                            12 3.29  11 3.29  11 3.29
  25  0.375  0.250  0.250-   5 2.85   6 2.85  11 2.85  12 2.85  17 2.85  22 2.85  24 2.85  30 2.85
                            14 3.29  10 3.29  26 3.29  21 3.29  21 3.29  26 3.29
  26  0.375  0.750  0.250-   5 2.85   6 2.85  11 2.85  12 2.85  17 2.85  22 2.85  24 2.85  30 2.85
                            28 3.29  25 3.29  28 3.29  25 3.29
  27  0.000  0.500  0.500-   3 2.85   9 2.85  10 2.85  13 2.85  15 2.85  16 2.85  23 2.85  32 2.85
                            29 3.29  30 3.29  31 3.29  20 3.29  20 3.29  31 3.29
  28  0.375  0.750  0.750-   5 2.85   6 2.85  11 2.85  12 2.85  17 2.85  22 2.85  24 2.85  30 2.85
                            23 3.29  21 3.29  26 3.29  19 3.29  26 3.29  21 3.29
  29  0.750  0.500  0.500-   4 2.85   9 2.85  14 2.85  15 2.85  16 2.85  18 2.85  19 2.85  32 2.85
                            17 3.29  27 3.29   8 3.29   8 3.29
  30  0.250  0.500  0.500-   3 2.85  10 2.85  13 2.85  21 2.85  23 2.85  25 2.85  26 2.85  28 2.85
                             6 3.29  22 3.29  27 3.29  17 3.29  22 3.29   6 3.29
  31  0.000  0.000  0.500-   3 2.85   9 2.85  10 2.85  13 2.85  15 2.85  16 2.85  23 2.85  32 2.85
                             7 3.29   8 3.29  27 3.29   6 3.29   7 3.29  27 3.29
  32  0.875  0.750  0.750-   1 2.85   2 2.85   7 2.85   8 2.85  20 2.85  27 2.85  29 2.85  31 2.85
                            23 3.29  15 3.29  19 3.29   9 3.29   9 3.29  15 3.29
 
  LATTYP: Found a simple tetragonal cell.
 ALAT       =     6.5800000000
 C/A-ratio  =     2.0000000000
  
  Lattice vectors:
  
 A1 = (   0.0000000000,   6.5800000000,   0.0000000000)
 A2 = (   0.0000000000,   0.0000000000,   6.5800000000)
 A3 = (  13.1600000000,   0.0000000000,   0.0000000000)


Analysis of symmetry for initial positions (statically):
=====================================================================
 Subroutine PRICEL returns:
 Original cell was already a primitive cell.
 

 Routine SETGRP: Setting up the symmetry group for a 
 simple tetragonal supercell.


 Subroutine GETGRP returns: Found  1 space group operations
 (whereof  1 operations were pure point group operations)
 out of a pool of 16 trial point group operations.


The static configuration has the point symmetry C_1 .


Analysis of symmetry for dynamics (positions and initial velocities):
=====================================================================
 Subroutine PRICEL returns:
 Original cell was already a primitive cell.
 

 Routine SETGRP: Setting up the symmetry group for a 
 simple tetragonal supercell.


 Subroutine GETGRP returns: Found  1 space group operations
 (whereof  1 operations were pure point group operations)
 out of a pool of 16 trial point group operations.


The dynamic configuration has the point symmetry C_1 .


 Subroutine INISYM returns: Found  1 space group operations
 (whereof  1 operations are pure point group operations),
 and found     1 'primitive' translations


----------------------------------------------------------------------------------------

                                     Primitive cell                                     

  volume of cell :     569.7806

  direct lattice vectors                    reciprocal lattice vectors
    13.160000000  0.000000000  0.000000000     0.075987842  0.000000000  0.000000000
     0.000000000  6.580000000  0.000000000     0.000000000  0.151975684  0.000000000
     0.000000000  0.000000000  6.580000000     0.000000000  0.000000000  0.151975684

  length of vectors
    13.160000000  6.580000000  6.580000000     0.075987842  0.151975684  0.151975684

  position of ions in fractional coordinates (direct lattice)
     0.750000000  0.500000000  0.000000000
     0.750000000  0.000000000  0.000000000
     0.125000000  0.750000000  0.250000000
     0.625000000  0.750000000  0.250000000
     0.500000000  0.500000000  0.000000000
     0.250000000  0.000000000  0.500000000
     0.000000000  0.000000000  0.000000000
     0.750000000  0.000000000  0.500000000
     0.875000000  0.750000000  0.250000000
     0.125000000  0.250000000  0.250000000
     0.500000000  0.000000000  0.500000000
     0.250000000  0.000000000  0.000000000
     0.125000000  0.250000000  0.750000000
     0.625000000  0.250000000  0.250000000
     0.875000000  0.250000000  0.750000000
     0.875000000  0.250000000  0.250000000
     0.500000000  0.500000000  0.500000000
     0.625000000  0.250000000  0.750000000
     0.625000000  0.750000000  0.750000000
     0.000000000  0.500000000  0.000000000
     0.375000000  0.250000000  0.750000000
     0.250000000  0.500000000  0.000000000
     0.125000000  0.750000000  0.750000000
     0.500000000  0.000000000  0.000000000
     0.375000000  0.250000000  0.250000000
     0.375000000  0.750000000  0.250000000
     0.000000000  0.500000000  0.500000000
     0.375000000  0.750000000  0.750000000
     0.750000000  0.500000000  0.500000000
     0.250000000  0.500000000  0.500000000
     0.000000000  0.000000000  0.500000000
     0.875000000  0.750000000  0.750000000

  ion indices of the primitive-cell ions
   primitive index   ion index
                 1           1
                 2           2
                 3           3
                 4           4
                 5           5
                 6           6
                 7           7
                 8           8
                 9           9
                10          10
                11          11
                12          12
                13          13
                14          14
                15          15
                16          16
                17          17
                18          18
                19          19
                20          20
                21          21
                22          22
                23          23
                24          24
                25          25
                26          26
                27          27
                28          28
                29          29
                30          30
                31          31
                32          32

----------------------------------------------------------------------------------------

 
 
 KPOINTS: K-Spacing Value to Generate K-Mesh: 0.03

Automatic generation of k-mesh.
 Grid dimensions read from file:
 generate k-points for:    3    5    5

 Generating k-lattice:

  Cartesian coordinates                     Fractional coordinates (reciprocal lattice)
     0.025329281  0.000000000  0.000000000     0.333333333  0.000000000  0.000000000
     0.000000000  0.030395137  0.000000000     0.000000000  0.200000000  0.000000000
     0.000000000  0.000000000  0.030395137     0.000000000  0.000000000  0.200000000

  Length of vectors
     0.025329281  0.030395137  0.030395137

  Shift w.r.t. Gamma in fractional coordinates (k-lattice)
     0.000000000  0.000000000  0.000000000

 
 Subroutine IBZKPT returns following result:
 ===========================================
 
 Found     38 irreducible k-points:
 
 Following reciprocal coordinates:
            Coordinates               Weight
  0.000000  0.000000  0.000000      1.000000
  0.333333  0.000000  0.000000      2.000000
  0.000000  0.200000  0.000000      2.000000
  0.000000  0.000000  0.200000      2.000000
  0.333333  0.200000  0.000000      2.000000
  0.333333  0.000000  0.200000      2.000000
  0.333333 -0.200000  0.000000      2.000000
  0.333333  0.000000 -0.200000      2.000000
  0.000000  0.400000  0.000000      2.000000
  0.000000  0.000000  0.400000      2.000000
  0.333333  0.400000  0.000000      2.000000
  0.333333  0.000000  0.400000      2.000000
  0.333333 -0.400000  0.000000      2.000000
  0.333333  0.000000 -0.400000      2.000000
  0.000000  0.200000  0.200000      2.000000
  0.000000 -0.200000  0.200000      2.000000
  0.333333  0.200000  0.200000      2.000000
  0.333333 -0.200000  0.200000      2.000000
  0.333333 -0.200000 -0.200000      2.000000
  0.333333  0.200000 -0.200000      2.000000
  0.000000  0.400000  0.200000      2.000000
  0.000000 -0.200000  0.400000      2.000000
  0.000000 -0.400000  0.200000      2.000000
  0.000000  0.200000  0.400000      2.000000
  0.333333  0.400000  0.200000      2.000000
  0.333333 -0.200000  0.400000      2.000000
  0.333333 -0.400000 -0.200000      2.000000
  0.333333  0.200000 -0.400000      2.000000
 -0.333333 -0.400000  0.200000      2.000000
 -0.333333  0.200000  0.400000      2.000000
 -0.333333  0.400000 -0.200000      2.000000
 -0.333333 -0.200000 -0.400000      2.000000
  0.000000  0.400000  0.400000      2.000000
  0.000000 -0.400000  0.400000      2.000000
  0.333333  0.400000  0.400000      2.000000
  0.333333 -0.400000  0.400000      2.000000
  0.333333 -0.400000 -0.400000      2.000000
  0.333333  0.400000 -0.400000      2.000000
 
 Following cartesian coordinates:
            Coordinates               Weight
  0.000000  0.000000  0.000000      1.000000
  0.025329  0.000000  0.000000      2.000000
  0.000000  0.030395  0.000000      2.000000
  0.000000  0.000000  0.030395      2.000000
  0.025329  0.030395  0.000000      2.000000
  0.025329  0.000000  0.030395      2.000000
  0.025329 -0.030395  0.000000      2.000000
  0.025329  0.000000 -0.030395      2.000000
  0.000000  0.060790  0.000000      2.000000
  0.000000  0.000000  0.060790      2.000000
  0.025329  0.060790  0.000000      2.000000
  0.025329  0.000000  0.060790      2.000000
  0.025329 -0.060790  0.000000      2.000000
  0.025329  0.000000 -0.060790      2.000000
  0.000000  0.030395  0.030395      2.000000
  0.000000 -0.030395  0.030395      2.000000
  0.025329  0.030395  0.030395      2.000000
  0.025329 -0.030395  0.030395      2.000000
  0.025329 -0.030395 -0.030395      2.000000
  0.025329  0.030395 -0.030395      2.000000
  0.000000  0.060790  0.030395      2.000000
  0.000000 -0.030395  0.060790      2.000000
  0.000000 -0.060790  0.030395      2.000000
  0.000000  0.030395  0.060790      2.000000
  0.025329  0.060790  0.030395      2.000000
  0.025329 -0.030395  0.060790      2.000000
  0.025329 -0.060790 -0.030395      2.000000
  0.025329  0.030395 -0.060790      2.000000
 -0.025329 -0.060790  0.030395      2.000000
 -0.025329  0.030395  0.060790      2.000000
 -0.025329  0.060790 -0.030395      2.000000
 -0.025329 -0.030395 -0.060790      2.000000
  0.000000  0.060790  0.060790      2.000000
  0.000000 -0.060790  0.060790      2.000000
  0.025329  0.060790  0.060790      2.000000
  0.025329 -0.060790  0.060790      2.000000
  0.025329 -0.060790 -0.060790      2.000000
  0.025329  0.060790 -0.060790      2.000000
 


--------------------------------------------------------------------------------------------------------




 Dimension of arrays:
   k-points           NKPTS =     38   k-points in BZ     NKDIM =     38   number of bands    NBANDS=    256
   number of dos      NEDOS =    301   number of ions     NIONS =     32
   non local maximal  LDIM  =      6   non local SUM 2l+1 LMDIM =     18
   total plane-waves  NPLWV =  90720
   max r-space proj   IRMAX =      1   max aug-charges    IRDMAX=   9287
   dimension x,y,z NGX =    70 NGY =   36 NGZ =   36
   dimension x,y,z NGXF=   140 NGYF=   72 NGZF=   72
   support grid    NGXF=   140 NGYF=   72 NGZF=   72
   ions per type =               5   9   7  11
   NGX,Y,Z   is equivalent  to a cutoff of   8.84,  9.10,  9.10 a.u.
   NGXF,Y,Z  is equivalent  to a cutoff of  17.69, 18.19, 18.19 a.u.

 SYSTEM =  unknown system                          
 POSCAR =  Nb-Mo-Ta-W alloy                        

 Startparameter for this run:
   NWRITE =      2    write-flag & timer
   PREC   = accura    normal or accurate (medium, high low for compatibility)
   ISTART =      0    job   : 0-new  1-cont  2-samecut
   ICHARG =      2    charge: 1-file 2-atom 10-const
   ISPIN  =      1    spin polarized calculation?
   LNONCOLLINEAR =      F non collinear calculations
   LSORBIT =      F    spin-orbit coupling
   INIWAV =      1    electr: 0-lowe 1-rand  2-diag
   LASPH  =      F    aspherical Exc in radial PAW
 Electronic Relaxation 1
   ENCUT  =  250.0 eV  18.37 Ry    4.29 a.u.  16.97  8.48  8.48*2*pi/ulx,y,z
   ENINI  =  250.0     initial cutoff
   ENAUG  =  455.7 eV  augmentation charge cutoff
   NELM   =     80;   NELMIN=  2; NELMDL= -5     # of ELM steps 
   EDIFF  = 0.1E-07   stopping-criterion for ELM
   LREAL  =      F    real-space projection
   NLSPLINE    = F    spline interpolate recip. space projectors
   LCOMPAT=      F    compatible to vasp.4.4
   GGA_COMPAT  = T    GGA compatible to vasp.4.4-vasp.4.6
   LMAXPAW     = -100 max onsite density
   LMAXMIX     =    2 max onsite mixed and CHGCAR
   VOSKOWN=      0    Vosko Wilk Nusair interpolation
   ROPT   =    0.00000   0.00000   0.00000   0.00000
 Ionic relaxation
   EDIFFG = -.1E-01   stopping-criterion for IOM
   NSW    =      0    number of steps for IOM
   NBLOCK =      1;   KBLOCK =      1    inner block; outer block 
   IBRION =     -1    ionic relax: 0-MD 1-quasi-New 2-CG
   NFREE  =      0    steps in history (QN), initial steepest desc. (CG)
   ISIF   =      2    stress and relaxation
   IWAVPR =     10    prediction:  0-non 1-charg 2-wave 3-comb
   ISYM   =      2    0-nonsym 1-usesym 2-fastsym
   LCORR  =      T    Harris-Foulkes like correction to forces

   POTIM  = 0.5000    time-step for ionic-motion
   TEIN   =    0.0    initial temperature
   TEBEG  =    0.0;   TEEND  =   0.0 temperature during run
   SMASS  =  -3.00    Nose mass-parameter (am)
   estimated Nose-frequenzy (Omega)   =  0.10E-29 period in steps = 0.13E+47 mass=  -0.396E-26a.u.
   SCALEE = 1.0000    scale energy and forces
   NPACO  =    256;   APACO  = 10.0  distance and # of slots for P.C.
   PSTRESS=    0.0 pullay stress

  Mass of Ions in am
   POMASS =  92.91 95.94180.95183.85
  Ionic Valenz
   ZVAL   =  13.00 14.00 11.00 14.00
  Atomic Wigner-Seitz radii
   RWIGS  =  -1.00 -1.00 -1.00 -1.00
  virtual crystal weights 
   VCA    =   1.00  1.00  1.00  1.00
   NELECT =     422.0000    total number of electrons
   NUPDOWN=      -1.0000    fix difference up-down

 DOS related values:
   EMIN   =  10.00;   EMAX   =-10.00  energy-range for DOS
   EFERMI =   0.00
   ISMEAR =     0;   SIGMA  =   0.02  broadening in eV -4-tet -1-fermi 0-gaus

 Electronic relaxation 2 (details)
   IALGO  =     38    algorithm
   LDIAG  =      T    sub-space diagonalisation (order eigenvalues)
   LSUBROT=      F    optimize rotation matrix (better conditioning)
   TURBO    =      0    0=normal 1=particle mesh
   IRESTART =      0    0=no restart 2=restart with 2 vectors
   NREBOOT  =      0    no. of reboots
   NMIN     =      0    reboot dimension
   EREF     =   0.00    reference energy to select bands
   IMIX   =      4    mixing-type and parameters
     AMIX     =   0.40;   BMIX     =  1.00
     AMIX_MAG =   1.60;   BMIX_MAG =  1.00
     AMIN     =   0.10
     WC   =   100.;   INIMIX=   1;  MIXPRE=   1;  MAXMIX= -45

 Intra band minimization:
   WEIMIN = 0.0000     energy-eigenvalue tresh-hold
   EBREAK =  0.98E-11  absolut break condition
   DEPER  =   0.30     relativ break condition  

   TIME   =   0.40     timestep for ELM

  volume/ion in A,a.u.               =      17.81       120.16
  Fermi-wavevector in a.u.,A,eV,Ry     =   1.481187  2.799037 29.850006  2.193914
  Thomas-Fermi vector in A             =   2.595128
 
 Write flags
   LWAVE        =      F    write WAVECAR
   LDOWNSAMPLE  =      F    k-point downsampling of WAVECAR
   LCHARG       =      F    write CHGCAR
   LVTOT        =      F    write LOCPOT, total local potential
   LVHAR        =      F    write LOCPOT, Hartree potential only
   LELF         =      F    write electronic localiz. function (ELF)
   LORBIT       =      0    0 simple, 1 ext, 2 COOP (PROOUT), +10 PAW based schemes


 Dipole corrections
   LMONO  =      F    monopole corrections only (constant potential shift)
   LDIPOL =      F    correct potential (dipole corrections)
   IDIPOL =      0    1-x, 2-y, 3-z, 4-all directions 
   EPSILON=  1.0000000 bulk dielectric constant

 Core level calculations are selected ICORELEVEL =  1
 Exchange correlation treatment:
   GGA     =    PE    GGA type
   LEXCH   =     8    internal setting for exchange type
   LIBXC   =     F    Libxc                    
   VOSKOWN =     0    Vosko Wilk Nusair interpolation
   LHFCALC =     F    Hartree Fock is set to
   LHFONE  =     F    Hartree Fock one center treatment
   AEXX    =    0.0000 exact exchange contribution

 Linear response parameters
   LEPSILON=     F    determine dielectric tensor
   LRPA    =     F    only Hartree local field effects (RPA)
   LNABLA  =     F    use nabla operator in PAW spheres
   LVEL    =     F    velocity operator in full k-point grid
   CSHIFT  =0.1000    complex shift for real part using Kramers Kronig
   OMEGAMAX=  -1.0    maximum frequency
   DEG_THRESHOLD= 0.2000000E-02 threshold for treating states as degnerate
   RTIME   =   -0.100 relaxation time in fs
  (WPLASMAI=    0.000 imaginary part of plasma frequency in eV, 0.658/RTIME)
   DFIELD  = 0.0000000 0.0000000 0.0000000 field for delta impulse in time
 
  Optional k-point grid parameters
   LKPOINTS_OPT  =     F    use optional k-point grid
   KPOINTS_OPT_MODE=     1    mode for optional k-point grid
 
 Orbital magnetization related:
   ORBITALMAG=     F  switch on orbital magnetization
   LCHIMAG   =     F  perturbation theory with respect to B field
   DQ        =  0.001000  dq finite difference perturbation B field
   LLRAUG    =     F  two centre corrections for induced B field



--------------------------------------------------------------------------------------------------------


 Static calculation
 charge density and potential will be updated during run
 non-spin polarized calculation
 Variant of blocked Davidson
 Davidson routine will perform the subspace rotation
 perform sub-space diagonalisation
    after iterative eigenvector-optimisation
 modified Broyden-mixing scheme, WC =      100.0
 initial mixing is a Kerker type mixing with AMIX =  0.4000 and BMIX =      1.0000
 Hartree-type preconditioning will be used
 using additional bands           45
 reciprocal scheme for non local part
 use partial core corrections
 calculate Harris-corrections to forces 
   (improved forces if not selfconsistent)
 use gradient corrections 
 use of overlap-Matrix (Vanderbilt PP)
 Gauss-broadening in eV      SIGMA  =   0.02


--------------------------------------------------------------------------------------------------------


  energy-cutoff  :      250.00
  volume of cell :      569.78
      direct lattice vectors                 reciprocal lattice vectors
    13.160000000  0.000000000  0.000000000     0.075987842  0.000000000  0.000000000
     0.000000000  6.580000000  0.000000000     0.000000000  0.151975684  0.000000000
     0.000000000  0.000000000  6.580000000     0.000000000  0.000000000  0.151975684

  length of vectors
    13.160000000  6.580000000  6.580000000     0.075987842  0.151975684  0.151975684


 
 k-points in units of 2pi/SCALE and weight: K-Spacing Value to Generate K-Mesh: 0.03
   0.00000000  0.00000000  0.00000000       0.013
   0.02532928  0.00000000  0.00000000       0.027
   0.00000000  0.03039514  0.00000000       0.027
   0.00000000  0.00000000  0.03039514       0.027
   0.02532928  0.03039514  0.00000000       0.027
   0.02532928  0.00000000  0.03039514       0.027
   0.02532928 -0.03039514  0.00000000       0.027
   0.02532928  0.00000000 -0.03039514       0.027
   0.00000000  0.06079027  0.00000000       0.027
   0.00000000  0.00000000  0.06079027       0.027
   0.02532928  0.06079027  0.00000000       0.027
   0.02532928  0.00000000  0.06079027       0.027
   0.02532928 -0.06079027  0.00000000       0.027
   0.02532928  0.00000000 -0.06079027       0.027
   0.00000000  0.03039514  0.03039514       0.027
   0.00000000 -0.03039514  0.03039514       0.027
   0.02532928  0.03039514  0.03039514       0.027
   0.02532928 -0.03039514  0.03039514       0.027
   0.02532928 -0.03039514 -0.03039514       0.027
   0.02532928  0.03039514 -0.03039514       0.027
   0.00000000  0.06079027  0.03039514       0.027
   0.00000000 -0.03039514  0.06079027       0.027
   0.00000000 -0.06079027  0.03039514       0.027
   0.00000000  0.03039514  0.06079027       0.027
   0.02532928  0.06079027  0.03039514       0.027
   0.02532928 -0.03039514  0.06079027       0.027
   0.02532928 -0.06079027 -0.03039514       0.027
   0.02532928  0.03039514 -0.06079027       0.027
  -0.02532928 -0.06079027  0.03039514       0.027
  -0.02532928  0.03039514  0.06079027       0.027
  -0.02532928  0.06079027 -0.03039514       0.027
  -0.02532928 -0.03039514 -0.06079027       0.027
   0.00000000  0.06079027  0.06079027       0.027
   0.00000000 -0.06079027  0.06079027       0.027
   0.02532928  0.06079027  0.06079027       0.027
   0.02532928 -0.06079027  0.06079027       0.027
   0.02532928 -0.06079027 -0.06079027       0.027
   0.02532928  0.06079027 -0.06079027       0.027
 
 k-points in reciprocal lattice and weights: K-Spacing Value to Generate K-Mesh: 0.03
   0.00000000  0.00000000  0.00000000       0.013
   0.33333333  0.00000000  0.00000000       0.027
   0.00000000  0.20000000  0.00000000       0.027
   0.00000000  0.00000000  0.20000000       0.027
   0.33333333  0.20000000  0.00000000       0.027
   0.33333333  0.00000000  0.20000000       0.027
   0.33333333 -0.20000000  0.00000000       0.027
   0.33333333  0.00000000 -0.20000000       0.027
   0.00000000  0.40000000  0.00000000       0.027
   0.00000000  0.00000000  0.40000000       0.027
   0.33333333  0.40000000  0.00000000       0.027
   0.33333333  0.00000000  0.40000000       0.027
   0.33333333 -0.40000000  0.00000000       0.027
   0.33333333  0.00000000 -0.40000000       0.027
   0.00000000  0.20000000  0.20000000       0.027
   0.00000000 -0.20000000  0.20000000       0.027
   0.33333333  0.20000000  0.20000000       0.027
   0.33333333 -0.20000000  0.20000000       0.027
   0.33333333 -0.20000000 -0.20000000       0.027
   0.33333333  0.20000000 -0.20000000       0.027
   0.00000000  0.40000000  0.20000000       0.027
   0.00000000 -0.20000000  0.40000000       0.027
   0.00000000 -0.40000000  0.20000000       0.027
   0.00000000  0.20000000  0.40000000       0.027
   0.33333333  0.40000000  0.20000000       0.027
   0.33333333 -0.20000000  0.40000000       0.027
   0.33333333 -0.40000000 -0.20000000       0.027
   0.33333333  0.20000000 -0.40000000       0.027
  -0.33333333 -0.40000000  0.20000000       0.027
  -0.33333333  0.20000000  0.40000000       0.027
  -0.33333333  0.40000000 -0.20000000       0.027
  -0.33333333 -0.20000000 -0.40000000       0.027
   0.00000000  0.40000000  0.40000000       0.027
   0.00000000 -0.40000000  0.40000000       0.027
   0.33333333  0.40000000  0.40000000       0.027
   0.33333333 -0.40000000  0.40000000       0.027
   0.33333333 -0.40000000 -0.40000000       0.027
   0.33333333  0.40000000 -0.40000000       0.027
 
 position of ions in fractional coordinates (direct lattice) 
   0.75000000  0.50000000  0.00000000
   0.75000000  0.00000000  0.00000000
   0.12500000  0.75000000  0.25000000
   0.62500000  0.75000000  0.25000000
   0.50000000  0.50000000  0.00000000
   0.25000000  0.00000000  0.50000000
   0.00000000  0.00000000  0.00000000
   0.75000000  0.00000000  0.50000000
   0.87500000  0.75000000  0.25000000
   0.12500000  0.25000000  0.25000000
   0.50000000  0.00000000  0.50000000
   0.25000000  0.00000000  0.00000000
   0.12500000  0.25000000  0.75000000
   0.62500000  0.25000000  0.25000000
   0.87500000  0.25000000  0.75000000
   0.87500000  0.25000000  0.25000000
   0.50000000  0.50000000  0.50000000
   0.62500000  0.25000000  0.75000000
   0.62500000  0.75000000  0.75000000
   0.00000000  0.50000000  0.00000000
   0.37500000  0.25000000  0.75000000
   0.25000000  0.50000000  0.00000000
   0.12500000  0.75000000  0.75000000
   0.50000000  0.00000000  0.00000000
   0.37500000  0.25000000  0.25000000
   0.37500000  0.75000000  0.25000000
   0.00000000  0.50000000  0.50000000
   0.37500000  0.75000000  0.75000000
   0.75000000  0.50000000  0.50000000
   0.25000000  0.50000000  0.50000000
   0.00000000  0.00000000  0.50000000
   0.87500000  0.75000000  0.75000000
 
 position of ions in cartesian coordinates  (Angst):
   9.87000000  3.29000000  0.00000000
   9.87000000  0.00000000  0.00000000
   1.64500000  4.93500000  1.64500000
   8.22500000  4.93500000  1.64500000
   6.58000000  3.29000000  0.00000000
   3.29000000  0.00000000  3.29000000
   0.00000000  0.00000000  0.00000000
   9.87000000  0.00000000  3.29000000
  11.51500000  4.93500000  1.64500000
   1.64500000  1.64500000  1.64500000
   6.58000000  0.00000000  3.29000000
   3.29000000  0.00000000  0.00000000
   1.64500000  1.64500000  4.93500000
   8.22500000  1.64500000  1.64500000
  11.51500000  1.64500000  4.93500000
  11.51500000  1.64500000  1.64500000
   6.58000000  3.29000000  3.29000000
   8.22500000  1.64500000  4.93500000
   8.22500000  4.93500000  4.93500000
   0.00000000  3.29000000  0.00000000
   4.93500000  1.64500000  4.93500000
   3.29000000  3.29000000  0.00000000
   1.64500000  4.93500000  4.93500000
   6.58000000  0.00000000  0.00000000
   4.93500000  1.64500000  1.64500000
   4.93500000  4.93500000  1.64500000
   0.00000000  3.29000000  3.29000000
   4.93500000  4.93500000  4.93500000
   9.87000000  3.29000000  3.29000000
   3.29000000  3.29000000  3.29000000
   0.00000000  0.00000000  3.29000000
  11.51500000  4.93500000  4.93500000
 


--------------------------------------------------------------------------------------------------------


 k-point   1 :   0.0000 0.0000 0.0000  plane waves:    5077
 k-point   2 :   0.3333 0.0000 0.0000  plane waves:    5118
 k-point   3 :   0.0000 0.2000 0.0000  plane waves:    5099
 k-point   4 :   0.0000 0.0000 0.2000  plane waves:    5099
 k-point   5 :   0.3333 0.2000 0.0000  plane waves:    5140
 k-point   6 :   0.3333 0.0000 0.2000  plane waves:    5140
 k-point   7 :   0.3333-0.2000 0.0000  plane waves:    5140
 k-point   8 :   0.3333 0.0000-0.2000  plane waves:    5140
 k-point   9 :   0.0000 0.4000 0.0000  plane waves:    5119
 k-point  10 :   0.0000 0.0000 0.4000  plane waves:    5119
 k-point  11 :   0.3333 0.4000 0.0000  plane waves:    5127
 k-point  12 :   0.3333 0.0000 0.4000  plane waves:    5127
 k-point  13 :   0.3333-0.4000 0.0000  plane waves:    5127
 k-point  14 :   0.3333 0.0000-0.4000  plane waves:    5127
 k-point  15 :   0.0000 0.2000 0.2000  plane waves:    5124
 k-point  16 :   0.0000-0.2000 0.2000  plane waves:    5124
 k-point  17 :   0.3333 0.2000 0.2000  plane waves:    5117
 k-point  18 :   0.3333-0.2000 0.2000  plane waves:    5117
 k-point  19 :   0.3333-0.2000-0.2000  plane waves:    5117
 k-point  20 :   0.3333 0.2000-0.2000  plane waves:    5117
 k-point  21 :   0.0000 0.4000 0.2000  plane waves:    5118
 k-point  22 :   0.0000-0.2000 0.4000  plane waves:    5118
 k-point  23 :   0.0000-0.4000 0.2000  plane waves:    5118
 k-point  24 :   0.0000 0.2000 0.4000  plane waves:    5118
 k-point  25 :   0.3333 0.4000 0.2000  plane waves:    5105
 k-point  26 :   0.3333-0.2000 0.4000  plane waves:    5105
 k-point  27 :   0.3333-0.4000-0.2000  plane waves:    5105
 k-point  28 :   0.3333 0.2000-0.4000  plane waves:    5105
 k-point  29 :  -0.3333-0.4000 0.2000  plane waves:    5105
 k-point  30 :  -0.3333 0.2000 0.4000  plane waves:    5105
 k-point  31 :  -0.3333 0.4000-0.2000  plane waves:    5105
 k-point  32 :  -0.3333-0.2000-0.4000  plane waves:    5105
 k-point  33 :   0.0000 0.4000 0.4000  plane waves:    5098
 k-point  34 :   0.0000-0.4000 0.4000  plane waves:    5098
 k-point  35 :   0.3333 0.4000 0.4000  plane waves:    5088
 k-point  36 :   0.3333-0.4000 0.4000  plane waves:    5088
 k-point  37 :   0.3333-0.4000-0.4000  plane waves:    5088
 k-point  38 :   0.3333 0.4000-0.4000  plane waves:    5088

 maximum and minimum number of plane-waves per node :       464      388

 maximum number of plane-waves:      5140
 maximum index in each direction: 
   IXMAX=   17   IYMAX=    8   IZMAX=    8
   IXMIN=  -17   IYMIN=   -8   IZMIN=   -8


 parallel 3D FFT for wavefunctions:
    minimum data exchange during FFTs selected (reduces bandwidth)
 parallel 3D FFT for charge:
    minimum data exchange during FFTs selected (reduces bandwidth)


 total amount of memory used by VASP MPI-rank0    61683. kBytes
=======================================================================

   base      :      30000. kBytes
   nonl-proj :       9945. kBytes
   fftplans  :        778. kBytes
   grid      :       1458. kBytes
   one-center:         46. kBytes
   wavefun   :      19456. kBytes
 
     INWAV:  cpu time      0.0000: real time      0.0000
 Broyden mixing: mesh for mixing (old mesh)
   NGX = 33   NGY = 17   NGZ = 17
  (NGX  =140   NGY  = 72   NGZ  = 72)
  gives a total of   9537 points

 initial charge density was supplied:
 charge density of overlapping atoms calculated
 number of electron     422.0000000 magnetization 
 keeping initial charge density in first step


--------------------------------------------------------------------------------------------------------


 Maximum index for augmentation-charges          517 (set IRDMAX)


--------------------------------------------------------------------------------------------------------


 First call to EWALD:  gamma=   0.214
 Maximum number of real-space cells 2x 3x 3
 Maximum number of reciprocal cells 4x 2x 2

    FEWALD:  cpu time      0.0014: real time      0.0014


--------------------------------------- Iteration      1(   1)  ---------------------------------------


    POTLOK:  cpu time      0.0136: real time      0.0177
    SETDIJ:  cpu time      0.0027: real time      0.0027
     EDDAV:  cpu time     25.2737: real time     25.3863
       DOS:  cpu time      0.2611: real time      0.2621
    --------------------------------------------
      LOOP:  cpu time     25.5510: real time     25.6688

 eigenvalue-minimisations  : 19896
 total energy-change (2. order) : 0.4121033E+04  (-0.1643976E+05)
 number of electron     422.0000000 magnetization 
 augmentation part      422.0000000 magnetization 

 Free energy of the ion-electron system (eV)
  ---------------------------------------------------
  alpha Z        PSCENC =      3776.38825405
  Ewald energy   TEWEN  =    -44364.85737408
  -Hartree energ DENC   =     -8534.68082886
  -exchange      EXHF   =         0.00000000
  -V(xc)+E(xc)   XCENC  =      1675.56675986
  PAW double counting   =     41494.10345838   -40869.26500481
  entropy T*S    EENTRO =        -0.00204564
  eigenvalues    EBANDS =     -1441.52134635
  atomic energy  EATOM  =     52385.30120119
  Solvation  Ediel_sol  =         0.00000000
  ---------------------------------------------------
  free energy    TOTEN  =      4121.03307375 eV

  energy without entropy =     4121.03511939  energy(sigma->0) =     4121.03409657


--------------------------------------------------------------------------------------------------------




--------------------------------------- Iteration      1(   2)  ---------------------------------------


     EDDAV:  cpu time     27.5661: real time     27.6939
       DOS:  cpu time      0.0297: real time      0.0298
    --------------------------------------------
      LOOP:  cpu time     27.5959: real time     27.7237

 eigenvalue-minimisations  : 19752
 total energy-change (2. order) :-0.4150240E+04  (-0.4019350E+04)
 number of electron     422.0000000 magnetization 
 augmentation part      422.0000000 magnetization 

 Free energy of the ion-electron system (eV)
  ---------------------------------------------------
  alpha Z        PSCENC =      3776.38825405
  Ewald energy   TEWEN  =    -44364.85737408
  -Hartree energ DENC   =     -8534.68082886
  -exchange      EXHF   =         0.00000000
  -V(xc)+E(xc)   XCENC  =      1675.56675986
  PAW double counting   =     41494.10345838   -40869.26500481
  entropy T*S    EENTRO =        -0.00362094
  eigenvalues    EBANDS =     -5591.75988861
  atomic energy  EATOM  =     52385.30120119
  Solvation  Ediel_sol  =         0.00000000
  ---------------------------------------------------
  free energy    TOTEN  =       -29.20704380 eV

  energy without entropy =      -29.20342287  energy(sigma->0) =      -29.20523334


--------------------------------------------------------------------------------------------------------




--------------------------------------- Iteration      1(   3)  ---------------------------------------


     EDDAV:  cpu time     14.2572: real time     14.3099
       DOS:  cpu time      0.0409: real time      0.0410
    --------------------------------------------
      LOOP:  cpu time     14.2981: real time     14.3510

 eigenvalue-minimisations  : 28472
 total energy-change (2. order) :-0.3442076E+03  (-0.3231993E+03)
 number of electron     422.0000000 magnetization 
 augmentation part      422.0000000 magnetization 

 Free energy of the ion-electron system (eV)
  ---------------------------------------------------
  alpha Z        PSCENC =      3776.38825405
  Ewald energy   TEWEN  =    -44364.85737408
  -Hartree energ DENC   =     -8534.68082886
  -exchange      EXHF   =         0.00000000
  -V(xc)+E(xc)   XCENC  =      1675.56675986
  PAW double counting   =     41494.10345838   -40869.26500481
  entropy T*S    EENTRO =        -0.00328267
  eigenvalues    EBANDS =     -5935.96783491
  atomic energy  EATOM  =     52385.30120119
  Solvation  Ediel_sol  =         0.00000000
  ---------------------------------------------------
  free energy    TOTEN  =      -373.41465184 eV

  energy without entropy =     -373.41136917  energy(sigma->0) =     -373.41301050


--------------------------------------------------------------------------------------------------------




--------------------------------------- Iteration      1(   4)  ---------------------------------------


     EDDAV:  cpu time      8.9193: real time      8.9522
       DOS:  cpu time      0.0056: real time      0.0056
    --------------------------------------------
      LOOP:  cpu time      8.9249: real time      8.9578

 eigenvalue-minimisations  : 26648
 total energy-change (2. order) :-0.2149268E+02  (-0.2085401E+02)
 number of electron     422.0000000 magnetization 
 augmentation part      422.0000000 magnetization 

 Free energy of the ion-electron system (eV)
  ---------------------------------------------------
  alpha Z        PSCENC =      3776.38825405
  Ewald energy   TEWEN  =    -44364.85737408
  -Hartree energ DENC   =     -8534.68082886
  -exchange      EXHF   =         0.00000000
  -V(xc)+E(xc)   XCENC  =      1675.56675986
  PAW double counting   =     41494.10345838   -40869.26500481
  entropy T*S    EENTRO =        -0.00500769
  eigenvalues    EBANDS =     -5957.45879158
  atomic energy  EATOM  =     52385.30120119
  Solvation  Ediel_sol  =         0.00000000
  ---------------------------------------------------
  free energy    TOTEN  =      -394.90733353 eV

  energy without entropy =     -394.90232584  energy(sigma->0) =     -394.90482968


--------------------------------------------------------------------------------------------------------




--------------------------------------- Iteration      1(   5)  ---------------------------------------


     EDDAV:  cpu time     15.8904: real time     15.9504
       DOS:  cpu time      0.0514: real time      0.0516
    CHARGE:  cpu time      0.3005: real time      0.3014
    MIXING:  cpu time      0.1357: real time      0.1362
    --------------------------------------------
      LOOP:  cpu time     16.3780: real time     16.4395

 eigenvalue-minimisations  : 33208
 total energy-change (2. order) :-0.1453511E+01  (-0.1441905E+01)
 number of electron     421.9999774 magnetization 
 augmentation part       93.9085258 magnetization 

 Broyden mixing:
  rms(total) = 0.78258E+01    rms(broyden)= 0.78241E+01
  rms(prec ) = 0.80938E+01
  weight for this iteration     100.00

 Free energy of the ion-electron system (eV)
  ---------------------------------------------------
  alpha Z        PSCENC =      3776.38825405
  Ewald energy   TEWEN  =    -44364.85737408
  -Hartree energ DENC   =     -8534.68082886
  -exchange      EXHF   =         0.00000000
  -V(xc)+E(xc)   XCENC  =      1675.56675986
  PAW double counting   =     41494.10345838   -40869.26500481
  entropy T*S    EENTRO =        -0.00495357
  eigenvalues    EBANDS =     -5958.91235691
  atomic energy  EATOM  =     52385.30120119
  Solvation  Ediel_sol  =         0.00000000
  ---------------------------------------------------
  free energy    TOTEN  =      -396.36084474 eV

  energy without entropy =     -396.35589117  energy(sigma->0) =     -396.35836795


--------------------------------------------------------------------------------------------------------




--------------------------------------- Iteration      1(   6)  ---------------------------------------


    POTLOK:  cpu time      0.0418: real time      0.0427
    SETDIJ:  cpu time      0.0021: real time      0.0021
     EDDAV:  cpu time      8.0916: real time      8.1195
       DOS:  cpu time      0.0056: real time      0.0056
    CHARGE:  cpu time      0.1779: real time      0.1784
    MIXING:  cpu time      0.0004: real time      0.0004
    --------------------------------------------
      LOOP:  cpu time      8.3193: real time      8.3487

 eigenvalue-minimisations  : 24256
 total energy-change (2. order) : 0.1319303E+02  (-0.5277019E+01)
 number of electron     421.9999759 magnetization 
 augmentation part       97.5614622 magnetization 

 Broyden mixing:
  rms(total) = 0.30095E+01    rms(broyden)= 0.30089E+01
  rms(prec ) = 0.41411E+01
  weight for this iteration     100.00

 eigenvalues of (default mixing * dielectric matrix)
  average eigenvalue GAMMA=   1.4624
  1.4624

 Free energy of the ion-electron system (eV)
  ---------------------------------------------------
  alpha Z        PSCENC =      3776.38825405
  Ewald energy   TEWEN  =    -44364.85737408
  -Hartree energ DENC   =     -8047.17448052
  -exchange      EXHF   =         0.00000000
  -V(xc)+E(xc)   XCENC  =      1652.25526609
  PAW double counting   =     48863.23863061   -48304.63884415
  entropy T*S    EENTRO =        -0.00542433
  eigenvalues    EBANDS =     -6343.67503874
  atomic energy  EATOM  =     52385.30120119
  Solvation  Ediel_sol  =         0.00000000
  ---------------------------------------------------
  free energy    TOTEN  =      -383.16780987 eV

  energy without entropy =     -383.16238554  energy(sigma->0) =     -383.16509770


--------------------------------------------------------------------------------------------------------




--------------------------------------- Iteration      1(   7)  ---------------------------------------


    POTLOK:  cpu time      0.0102: real time      0.0109
    SETDIJ:  cpu time      0.0021: real time      0.0021
     EDDAV:  cpu time      8.1593: real time      8.1879
       DOS:  cpu time      0.0058: real time      0.0058
    CHARGE:  cpu time      0.1787: real time      0.1793
    MIXING:  cpu time      0.0004: real time      0.0004
    --------------------------------------------
      LOOP:  cpu time      8.3565: real time      8.3862

 eigenvalue-minimisations  : 28248
 total energy-change (2. order) :-0.2159933E+02  (-0.9245211E+01)
 number of electron     421.9999755 magnetization 
 augmentation part       97.6528584 magnetization 

 Broyden mixing:
  rms(total) = 0.28283E+01    rms(broyden)= 0.28262E+01
  rms(prec ) = 0.82594E+01
  weight for this iteration     100.00

 eigenvalues of (default mixing * dielectric matrix)
  average eigenvalue GAMMA=   0.9489
  1.5691  0.3288

 Free energy of the ion-electron system (eV)
  ---------------------------------------------------
  alpha Z        PSCENC =      3776.38825405
  Ewald energy   TEWEN  =    -44364.85737408
  -Hartree energ DENC   =     -7950.40730190
  -exchange      EXHF   =         0.00000000
  -V(xc)+E(xc)   XCENC  =      1645.46147299
  PAW double counting   =     52747.01611268   -52208.99353763
  entropy T*S    EENTRO =        -0.00767457
  eigenvalues    EBANDS =     -6434.66829025
  atomic energy  EATOM  =     52385.30120119
  Solvation  Ediel_sol  =         0.00000000
  ---------------------------------------------------
  free energy    TOTEN  =      -404.76713752 eV

  energy without entropy =     -404.75946295  energy(sigma->0) =     -404.76330024


--------------------------------------------------------------------------------------------------------




--------------------------------------- Iteration      1(   8)  ---------------------------------------


    POTLOK:  cpu time      0.0107: real time      0.0113
    SETDIJ:  cpu time      0.0023: real time      0.0023
     EDDAV:  cpu time     10.8526: real time     10.8929
       DOS:  cpu time      0.0057: real time      0.0057
    CHARGE:  cpu time      0.1717: real time      0.1722
    MIXING:  cpu time      0.0003: real time      0.0003
    --------------------------------------------
      LOOP:  cpu time     11.0433: real time     11.0847

 eigenvalue-minimisations  : 27616
 total energy-change (2. order) : 0.2880714E+02  (-0.9135046E+01)
 number of electron     421.9999765 magnetization 
 augmentation part       98.0736988 magnetization 

 Broyden mixing:
  rms(total) = 0.95627E+00    rms(broyden)= 0.95298E+00
  rms(prec ) = 0.14937E+01
  weight for this iteration     100.00

 eigenvalues of (default mixing * dielectric matrix)
  average eigenvalue GAMMA=   0.8658
  1.6818  0.6529  0.2626

 Free energy of the ion-electron system (eV)
  ---------------------------------------------------
  alpha Z        PSCENC =      3776.38825405
  Ewald energy   TEWEN  =    -44364.85737408
  -Hartree energ DENC   =     -7847.75103524
  -exchange      EXHF   =         0.00000000
  -V(xc)+E(xc)   XCENC  =      1641.36031090
  PAW double counting   =     55086.21310125   -54562.59560338
  entropy T*S    EENTRO =        -0.00577357
  eigenvalues    EBANDS =     -6490.01307576
  atomic energy  EATOM  =     52385.30120119
  Solvation  Ediel_sol  =         0.00000000
  ---------------------------------------------------
  free energy    TOTEN  =      -375.95999463 eV

  energy without entropy =     -375.95422106  energy(sigma->0) =     -375.95710784


--------------------------------------------------------------------------------------------------------




--------------------------------------- Iteration      1(   9)  ---------------------------------------


    POTLOK:  cpu time      0.0101: real time      0.0108
    SETDIJ:  cpu time      0.0021: real time      0.0021
     EDDAV:  cpu time      7.4446: real time      7.4712
       DOS:  cpu time      0.0056: real time      0.0056
    CHARGE:  cpu time      0.1723: real time      0.1728
    MIXING:  cpu time      0.0003: real time      0.0003
    --------------------------------------------
      LOOP:  cpu time      7.6350: real time      7.6629

 eigenvalue-minimisations  : 25416
 total energy-change (2. order) : 0.5369925E+00  (-0.2184225E+01)
 number of electron     421.9999763 magnetization 
 augmentation part       98.6905147 magnetization 

 Broyden mixing:
  rms(total) = 0.67254E+00    rms(broyden)= 0.67174E+00
  rms(prec ) = 0.78413E+00
  weight for this iteration     100.00

 eigenvalues of (default mixing * dielectric matrix)
  average eigenvalue GAMMA=   0.7976
  1.5679  1.0040  0.2593  0.3593

 Free energy of the ion-electron system (eV)
  ---------------------------------------------------
  alpha Z        PSCENC =      3776.38825405
  Ewald energy   TEWEN  =    -44364.85737408
  -Hartree energ DENC   =     -7807.52608563
  -exchange      EXHF   =         0.00000000
  -V(xc)+E(xc)   XCENC  =      1639.69631827
  PAW double counting   =     55917.07144057   -55399.57051695
  entropy T*S    EENTRO =        -0.00332282
  eigenvalues    EBANDS =     -6521.92291672
  atomic energy  EATOM  =     52385.30120119
  Solvation  Ediel_sol  =         0.00000000
  ---------------------------------------------------
  free energy    TOTEN  =      -375.42300212 eV

  energy without entropy =     -375.41967930  energy(sigma->0) =     -375.42134071


--------------------------------------------------------------------------------------------------------




--------------------------------------- Iteration      1(  10)  ---------------------------------------


    POTLOK:  cpu time      0.0109: real time      0.0115
    SETDIJ:  cpu time      0.0021: real time      0.0021
     EDDAV:  cpu time      7.7144: real time      7.7428
       DOS:  cpu time      0.0047: real time      0.0047
    CHARGE:  cpu time      0.1753: real time      0.1759
    MIXING:  cpu time      0.0004: real time      0.0004
    --------------------------------------------
      LOOP:  cpu time      7.9077: real time      7.9374

 eigenvalue-minimisations  : 25424
 total energy-change (2. order) : 0.1163624E+00  (-0.2488968E+00)
 number of electron     421.9999763 magnetization 
 augmentation part       98.6578135 magnetization 

 Broyden mixing:
  rms(total) = 0.50095E+00    rms(broyden)= 0.50081E+00
  rms(prec ) = 0.52789E+00
  weight for this iteration     100.00

 eigenvalues of (default mixing * dielectric matrix)
  average eigenvalue GAMMA=   0.9882
  1.8297  1.8297  0.2643  0.5086  0.5086

 Free energy of the ion-electron system (eV)
  ---------------------------------------------------
  alpha Z        PSCENC =      3776.38825405
  Ewald energy   TEWEN  =    -44364.85737408
  -Hartree energ DENC   =     -7810.64404881
  -exchange      EXHF   =         0.00000000
  -V(xc)+E(xc)   XCENC  =      1639.86452937
  PAW double counting   =     55924.18449809   -55406.17735429
  entropy T*S    EENTRO =        -0.00332464
  eigenvalues    EBANDS =     -6519.36302060
  atomic energy  EATOM  =     52385.30120119
  Solvation  Ediel_sol  =         0.00000000
  ---------------------------------------------------
  free energy    TOTEN  =      -375.30663972 eV

  energy without entropy =     -375.30331507  energy(sigma->0) =     -375.30497739


--------------------------------------------------------------------------------------------------------




--------------------------------------- Iteration      1(  11)  ---------------------------------------


    POTLOK:  cpu time      0.0106: real time      0.0112
    SETDIJ:  cpu time      0.0021: real time      0.0021
     EDDAV:  cpu time      7.3223: real time      7.3492
       DOS:  cpu time      0.0056: real time      0.0056
    CHARGE:  cpu time      0.1758: real time      0.1764
    MIXING:  cpu time      0.0004: real time      0.0004
    --------------------------------------------
      LOOP:  cpu time      7.5167: real time      7.5449

 eigenvalue-minimisations  : 24824
 total energy-change (2. order) :-0.1443773E-02  (-0.6841589E-01)
 number of electron     421.9999764 magnetization 
 augmentation part       98.5336983 magnetization 

 Broyden mixing:
  rms(total) = 0.24301E+00    rms(broyden)= 0.24298E+00
  rms(prec ) = 0.30210E+00
  weight for this iteration     100.00

 eigenvalues of (default mixing * dielectric matrix)
  average eigenvalue GAMMA=   1.0554
  2.6257  1.7954  0.7251  0.2650  0.5101  0.4111

 Free energy of the ion-electron system (eV)
  ---------------------------------------------------
  alpha Z        PSCENC =      3776.38825405
  Ewald energy   TEWEN  =    -44364.85737408
  -Hartree energ DENC   =     -7816.63829740
  -exchange      EXHF   =         0.00000000
  -V(xc)+E(xc)   XCENC  =      1640.12483649
  PAW double counting   =     55900.17910320   -55381.03715376
  entropy T*S    EENTRO =        -0.00338816
  eigenvalues    EBANDS =     -6514.76526501
  atomic energy  EATOM  =     52385.30120119
  Solvation  Ediel_sol  =         0.00000000
  ---------------------------------------------------
  free energy    TOTEN  =      -375.30808349 eV

  energy without entropy =     -375.30469533  energy(sigma->0) =     -375.30638941


--------------------------------------------------------------------------------------------------------




--------------------------------------- Iteration      1(  12)  ---------------------------------------


    POTLOK:  cpu time      0.0097: real time      0.0104
    SETDIJ:  cpu time      0.0021: real time      0.0021
     EDDAV:  cpu time      7.7794: real time      7.8082
       DOS:  cpu time      0.0058: real time      0.0058
    CHARGE:  cpu time      0.1768: real time      0.1774
    MIXING:  cpu time      0.0004: real time      0.0004
    --------------------------------------------
      LOOP:  cpu time      7.9742: real time      8.0043

 eigenvalue-minimisations  : 25304
 total energy-change (2. order) :-0.4964979E-02  (-0.4619022E-01)
 number of electron     421.9999764 magnetization 
[...]
    131       5.0533      2.00000
    132       5.2143      2.00000
    133       5.2784      2.00000
    134       5.4096      2.00000
    135       5.5735      2.00000
    136       5.6970      2.00000
    137       5.8071      2.00000
    138       5.8653      2.00000
    139       5.8933      2.00000
    140       5.9115      2.00000
    141       5.9763      2.00000
    142       6.0158      2.00000
    143       6.0618      2.00000
    144       6.0851      2.00000
    145       6.1100      2.00000
    146       6.1519      2.00000
    147       6.1738      2.00000
    148       6.2402      2.00000
    149       6.3047      2.00000
    150       6.3133      2.00000
    151       6.3723      2.00000
    152       6.4144      2.00000
    153       6.4711      2.00000
    154       6.4914      2.00000
    155       6.5754      2.00000
    156       6.5835      2.00000
    157       6.6349      2.00000
    158       6.7171      2.00000
    159       6.8064      2.00000
    160       6.8399      2.00000
    161       6.9308      2.00000
    162       6.9488      2.00000
    163       6.9830      2.00000
    164       6.9951      2.00000
    165       7.0380      2.00000
    166       7.0587      2.00000
    167       7.0655      2.00000
    168       7.0875      2.00000
    169       7.1873      2.00000
    170       7.2281      2.00000
    171       7.2454      2.00000
    172       7.2510      2.00000
    173       7.2746      2.00000
    174       7.3497      2.00000
    175       7.3665      2.00000
    176       7.3820      2.00000
    177       7.4152      2.00000
    178       7.4548      2.00000
    179       7.4792      2.00000
    180       7.4943      2.00000
    181       7.5168      2.00000
    182       7.5465      2.00000
    183       7.5602      2.00000
    184       7.5693      2.00000
    185       7.6066      2.00000
    186       7.6181      2.00000
    187       7.6323      2.00000
    188       7.6839      2.00000
    189       7.6984      2.00000
    190       7.7093      2.00000
    191       7.7246      2.00000
    192       7.7665      2.00000
    193       7.7861      2.00000
    194       7.8094      2.00000
    195       7.8446      2.00000
    196       7.8666      2.00000
    197       7.8994      2.00000
    198       7.9207      2.00000
    199       7.9702      2.00000
    200       8.0183      2.00000
    201       8.0379      2.00000
    202       8.0707      2.00000
    203       8.1101      2.00000
    204       8.1545      2.00000
    205       8.1751      2.00000
    206       8.2002      2.00000
    207       8.2259      2.00000
    208       8.2564      2.00000
    209       8.2706      2.00000
    210       8.3025      2.00000
    211       8.3573      2.00000
    212       8.4119      2.00000
    213       8.4735      2.00000
    214       8.6640      2.00000
    215       8.8126      2.00000
    216       8.8576      2.00000
    217       9.5272      0.00000
    218      10.3983      0.00000
    219      10.5597      0.00000
    220      10.6361      0.00000
    221      10.6676      0.00000
    222      10.7087      0.00000
    223      10.7412      0.00000
    224      10.7809      0.00000
    225      10.8734      0.00000
    226      10.9695      0.00000
    227      11.0054      0.00000
    228      11.0321      0.00000
    229      11.0856      0.00000
    230      11.1333      0.00000
    231      11.1437      0.00000
    232      11.1641      0.00000
    233      11.1819      0.00000
    234      11.2329      0.00000
    235      11.2466      0.00000
    236      11.3019      0.00000
    237      11.3256      0.00000
    238      11.3666      0.00000
    239      11.4105      0.00000
    240      11.4381      0.00000
    241      11.4644      0.00000
    242      11.4894      0.00000
    243      11.5121      0.00000
    244      11.5639      0.00000
    245      11.5787      0.00000
    246      11.6706      0.00000
    247      11.6954      0.00000
    248      11.7178      0.00000
    249      11.7801      0.00000
    250      11.8364      0.00000
    251      11.8545      0.00000
    252      11.8873      0.00000
    253      11.9422      0.00000
    254      11.9739      0.00000
    255      12.0650      0.00000
    256      12.1220      0.00000


--------------------------------------------------------------------------------------------------------


 soft charge-density along one line, spin component           1
         0         1         2         3         4         5         6         7         8         9
 total charge-density along one line
 
 pseudopotential strength for first ion, spin component:           1
  5.771 -20.395   0.001   0.002   0.001  -0.003  -0.004  -0.003
-20.395   9.301   0.002   0.003   0.002  -0.000  -0.000  -0.000
  0.001   0.002  -9.835  -0.001  -0.004   6.089   0.001   0.004
  0.002   0.003  -0.001  -9.838   0.001   0.001   6.093  -0.001
  0.001   0.002  -0.004   0.001  -9.834   0.004  -0.001   6.089
 -0.003  -0.000   6.089   0.001   0.004   7.887  -0.000  -0.003
 -0.004  -0.000   0.001   6.093  -0.001  -0.000   7.885   0.001
 -0.003  -0.000   0.004  -0.001   6.089  -0.003   0.001   7.887
 -0.003  -0.001   0.001   0.000   0.001  -0.001  -0.000  -0.001
 -0.000  -0.000   0.002   0.001   0.000  -0.002  -0.002  -0.000
 -0.002  -0.000  -0.001   0.002  -0.001   0.001  -0.002   0.001
  0.001   0.000   0.000   0.001   0.002  -0.000  -0.001  -0.002
  0.000  -0.000  -0.001  -0.000   0.001   0.001  -0.000  -0.001
 -0.003  -0.001   0.001   0.000   0.001  -0.002  -0.001  -0.002
 -0.001  -0.000   0.002   0.002   0.000  -0.003  -0.002  -0.001
 -0.002  -0.001  -0.001   0.002  -0.001   0.001  -0.003   0.001
  0.001   0.000   0.000   0.001   0.002  -0.001  -0.002  -0.003
  0.000  -0.000  -0.001  -0.000   0.001   0.002  -0.000  -0.001
 total augmentation occupancy for first ion, spin component:           1
  1.995  -0.047   0.000   0.000   0.000   0.000   0.000  -0.000  -0.012   0.003  -0.002   0.004  -0.001   0.010  -0.002   0.002
 -0.047   1.334   0.000   0.001  -0.001  -0.002  -0.002  -0.002  -0.031  -0.002  -0.044   0.021  -0.009   0.008   0.007   0.017
  0.000   0.000   1.996  -0.000   0.000  -0.030   0.001  -0.002  -0.004   0.004  -0.002  -0.004  -0.003   0.002  -0.002   0.001
  0.000   0.001  -0.000   1.996  -0.000   0.001  -0.030   0.001  -0.004  -0.000   0.007  -0.003  -0.000   0.003  -0.000  -0.005
  0.000  -0.001   0.000  -0.000   1.996  -0.002   0.001  -0.031  -0.000  -0.004  -0.001   0.004   0.003   0.000   0.003   0.001
  0.000  -0.002  -0.030   0.001  -0.002   0.069  -0.001   0.002   0.007  -0.014   0.002   0.002   0.005  -0.005   0.007  -0.001
  0.000  -0.002   0.001  -0.030   0.001  -0.001   0.067  -0.001   0.002  -0.004  -0.008   0.004   0.000  -0.001   0.002   0.004
 -0.000  -0.002  -0.002   0.001  -0.031   0.002  -0.001   0.072  -0.004   0.002   0.003  -0.013  -0.006   0.002  -0.001  -0.001
 -0.012  -0.031  -0.004  -0.004  -0.000   0.007   0.002  -0.004   3.353   0.024   0.094  -0.058  -0.002  -1.426  -0.013  -0.042
  0.003  -0.002   0.004  -0.000  -0.004  -0.014  -0.004   0.002   0.024   3.408   0.013  -0.019  -0.023  -0.014  -1.444  -0.005
 -0.002  -0.044  -0.002   0.007  -0.001   0.002  -0.008   0.003   0.094   0.013   2.675   0.015   0.014  -0.041  -0.005  -1.222
  0.004   0.021  -0.004  -0.003   0.004   0.002   0.004  -0.013  -0.058  -0.019   0.015   3.390   0.041   0.034  -0.005  -0.005
 -0.001  -0.009  -0.003  -0.000   0.003   0.005   0.000  -0.006  -0.002  -0.023   0.014   0.041   2.784   0.001   0.009  -0.005
  0.010   0.008   0.002   0.003   0.000  -0.005  -0.001   0.002  -1.426  -0.014  -0.041   0.034   0.001   0.617   0.007   0.018
 -0.002   0.007  -0.002  -0.000   0.003   0.007   0.002  -0.001  -0.013  -1.444  -0.005  -0.005   0.009   0.007   0.623   0.002
  0.002   0.017   0.001  -0.005   0.001  -0.001   0.004  -0.001  -0.042  -0.005  -1.222  -0.005  -0.005   0.018   0.002   0.565
 -0.003  -0.012   0.003   0.001  -0.002  -0.001  -0.004   0.007   0.034  -0.005  -0.005  -1.436  -0.016  -0.019   0.007   0.002
  0.001   0.004   0.002   0.000  -0.002  -0.002  -0.000   0.002   0.001   0.009  -0.005  -0.017  -1.262  -0.000  -0.003   0.002


------------------------ aborting loop because EDIFF is reached ----------------------------------------


    CHARGE:  cpu time      0.1792: real time      0.1799
    FORLOC:  cpu time      0.0013: real time      0.0013
    FORNL :  cpu time      4.2109: real time      4.2279
    STRESS:  cpu time      3.4576: real time      3.4707
    FORCOR:  cpu time      0.0337: real time      0.0338
    FORHAR:  cpu time      0.0797: real time      0.0802
    MIXING:  cpu time      0.4090: real time      0.4106
    OFIELD:  cpu time      0.0000: real time      0.0000

  FORCE on cell =-STRESS in cart. coord.  units (eV):
  Direction    XX          YY          ZZ          XY          YZ          ZX
  --------------------------------------------------------------------------------------
  Alpha Z  3776.38825  3776.38825  3776.38825
  Ewald  -14913.47768-14732.13946-14719.47327    38.47781    -4.80704    23.57278
  Hartree  2482.84245  2657.29173  2671.72745    34.24921    -6.11928    21.52970
  E(xc)   -1949.27912 -1949.29074 -1949.34602    -0.03744     0.03561    -0.02429
  Local    3600.46042  3245.76717  3219.17019   -70.13944    10.81764   -43.46160
  n-local  -653.44140  -656.14947  -655.03450    -1.75636    -0.42371    -0.53980
  augment  1275.87520  1275.95452  1276.00974    -0.46920     0.02411    -0.33211
  Kinetic  6319.41607  6321.02515  6319.75671     0.32425     0.20358    -0.29732
  Fock        0.00000     0.00000     0.00000     0.00000     0.00000     0.00000
  -------------------------------------------------------------------------------------
  Total     -61.21580   -61.15284   -60.80143     0.64883    -0.26910     0.44737
  in kB    -172.13392  -171.95686  -170.96875     1.82445    -0.75667     1.25797
  external pressure =     -171.69 kB  Pullay stress =        0.00 kB


 VOLUME and BASIS-vectors are now :
 -----------------------------------------------------------------------------
  energy-cutoff  :      250.00
  volume of cell :      569.78
      direct lattice vectors                 reciprocal lattice vectors
    13.160000000  0.000000000  0.000000000     0.075987842  0.000000000  0.000000000
     0.000000000  6.580000000  0.000000000     0.000000000  0.151975684  0.000000000
     0.000000000  0.000000000  6.580000000     0.000000000  0.000000000  0.151975684

  length of vectors
    13.160000000  6.580000000  6.580000000     0.075987842  0.151975684  0.151975684


 FORCES acting on ions
    electron-ion (+dipol)            ewald-force                    non-local-force                 convergence-correction
 -----------------------------------------------------------------------------------------------
   0.284E+02 0.497E+02 0.497E+02   -.281E+02 -.495E+02 -.495E+02   0.743E-02 0.502E-01 0.122E+00   0.240E-04 0.138E-05 -.428E-05
   0.362E+02 -.498E+02 0.497E+02   -.361E+02 0.495E+02 -.495E+02   -.527E-01 -.100E-01 0.120E+00   0.191E-04 -.153E-05 -.766E-06
   0.753E+02 0.314E+02 0.294E+02   -.749E+02 -.311E+02 -.291E+02   0.246E-02 0.878E-01 -.999E-01   0.173E-04 -.109E-04 0.438E-04
   -.241E+02 0.408E+02 0.194E+01   0.239E+02 -.403E+02 -.152E+01   0.971E-01 -.167E-01 -.691E-01   -.426E-04 -.436E-04 -.293E-04
   -.135E+03 0.219E+02 0.775E+02   0.134E+03 -.219E+02 -.770E+02   -.175E+00 0.160E-01 0.518E-01   -.405E-04 -.451E-05 -.874E-06
   -.623E+02 -.238E+02 -.237E+02   0.623E+02 0.236E+02 0.236E+02   -.218E+00 0.885E-01 0.319E-01   -.108E-04 -.272E-05 -.929E-04
   0.155E+03 -.535E+02 -.628E+01   -.156E+03 0.533E+02 0.606E+01   0.493E+00 0.258E-02 0.668E-01   0.350E-04 -.166E-04 0.956E-04
   0.516E+02 -.534E+02 -.533E+02   -.514E+02 0.533E+02 0.533E+02   0.434E-01 -.673E-01 -.128E+00   0.525E-04 0.416E-05 -.854E-05
   0.846E+02 0.335E+02 0.516E+02   -.843E+02 -.335E+02 -.511E+02   -.663E-01 0.100E+00 -.706E-01   0.961E-04 -.209E-04 0.109E-04
   0.105E+03 -.335E+02 0.315E+02   -.105E+03 0.335E+02 -.313E+02   0.414E+00 -.123E+00 -.327E-01   -.294E-05 0.122E-04 0.571E-04
   -.135E+03 -.236E+02 -.832E+02   0.134E+03 0.236E+02 0.829E+02   0.135E-01 0.324E-01 -.589E-01   -.918E-04 0.132E-04 -.541E-05
   -.497E+02 -.237E+02 0.236E+02   0.499E+02 0.236E+02 -.236E+02   -.493E-01 0.601E-01 0.179E-01   0.232E-04 -.909E-05 0.928E-04
   0.808E+02 -.335E+02 -.315E+02   -.807E+02 0.335E+02 0.313E+02   0.109E+00 -.119E+00 0.373E-01   0.151E-04 0.629E-05 -.557E-04
   -.496E+02 -.435E+02 0.187E+01   0.499E+02 0.434E+02 -.164E+01   -.303E+00 -.101E+00 0.522E-01   -.216E-04 0.297E-04 -.167E-04
   0.910E+02 -.266E+02 -.408E+02   -.911E+02 0.263E+02 0.401E+02   0.251E+00 -.595E-01 -.185E-01   0.109E-04 0.255E-04 0.229E-05
   0.664E+02 -.266E+02 0.409E+02   -.662E+02 0.263E+02 -.401E+02   0.710E-01 -.275E-01 -.610E-01   0.655E-04 0.209E-04 -.353E-05
   -.106E+03 0.186E+02 -.657E+02   0.105E+03 -.185E+02 0.652E+02   -.413E-01 -.174E-01 -.827E-01   -.592E-04 0.565E-06 -.127E-05
   -.203E+02 -.345E+02 -.174E+01   0.202E+02 0.341E+02 0.129E+01   0.407E-01 -.437E-01 0.236E-01   -.259E-04 0.360E-04 0.323E-04
   -.143E+02 0.345E+02 -.166E+01   0.144E+02 -.341E+02 0.129E+01   0.310E-01 0.434E-01 -.802E-01   -.209E-04 -.368E-04 0.302E-04
   0.122E+03 0.421E+02 -.499E+01   -.122E+03 -.419E+02 0.476E+01   0.484E+00 0.675E-02 0.602E-01   0.226E-04 0.104E-04 0.792E-04
   -.134E+03 -.346E+02 0.143E+02   0.134E+03 0.341E+02 -.142E+02   -.353E+00 -.613E-01 -.255E-01   -.162E-04 0.188E-04 -.793E-07
   -.412E+02 0.237E+02 0.237E+02   0.413E+02 -.236E+02 -.236E+02   -.185E+00 -.173E-01 -.434E-01   0.363E-04 0.190E-04 0.969E-04
   0.733E+02 0.337E+02 -.315E+02   -.732E+02 -.335E+02 0.313E+02   0.414E-01 0.234E-01 -.597E-01   0.563E-05 -.122E-04 -.502E-04
   -.145E+03 -.236E+02 0.833E+02   0.145E+03 0.236E+02 -.829E+02   -.520E+00 0.138E-02 0.638E-01   -.630E-04 0.535E-05 -.312E-05
   -.139E+03 -.437E+02 -.181E+02   0.139E+03 0.434E+02 0.181E+02   -.214E+00 -.861E-01 0.148E-01   -.927E-04 0.217E-04 0.160E-05
   -.140E+03 0.437E+02 -.182E+02   0.139E+03 -.434E+02 0.181E+02   -.182E+00 0.795E-01 0.209E-01   -.923E-04 -.224E-04 0.620E-05
   0.145E+03 0.534E+02 0.618E+01   -.145E+03 -.533E+02 -.606E+01   0.128E+00 0.483E-01 0.740E-01   0.788E-04 0.279E-04 -.106E-03
   -.171E+03 0.436E+02 0.182E+02   0.171E+03 -.434E+02 -.181E+02   -.588E+00 0.977E-01 -.151E-01   -.266E-04 -.276E-04 -.440E-05
   0.703E+02 0.534E+02 -.534E+02   -.705E+02 -.533E+02 0.533E+02   0.395E+00 0.436E-01 -.720E-01   0.223E-04 -.101E-05 -.166E-05
   -.812E+02 0.237E+02 -.237E+02   0.815E+02 -.236E+02 0.236E+02   -.347E+00 -.251E-01 0.288E-01   0.447E-05 0.147E-04 -.981E-04
   0.145E+03 -.535E+02 0.620E+01   -.145E+03 0.533E+02 -.606E+01   0.109E+00 -.249E-01 0.625E-01   0.104E-03 -.240E-04 -.106E-03
   0.116E+03 0.336E+02 -.516E+02   -.116E+03 -.335E+02 0.511E+02   0.488E+00 0.306E-01 -.922E-01   0.165E-04 -.282E-04 0.289E-05
 -----------------------------------------------------------------------------------------------
   0.747E-01 -.118E-01 0.162E+00   -.284E-12 0.327E-12 0.455E-12   -.747E-01 0.118E-01 -.162E+00   0.420E-04 0.573E-05 -.368E-04
 
 
 POSITION                                       TOTAL-FORCE (eV/Angst)
 -----------------------------------------------------------------------------------
      9.87000      3.29000      0.00000         0.306453      0.263314      0.315589
      9.87000      0.00000      0.00000         0.024861     -0.301501      0.337857
      1.64500      4.93500      1.64500         0.379316      0.394061      0.207747
      8.22500      4.93500      1.64500        -0.036580      0.472000      0.345697
      6.58000      3.29000      0.00000        -0.459179      0.004719      0.501162
      3.29000      0.00000      3.29000        -0.140579     -0.058931     -0.034351
      0.00000      0.00000      0.00000         0.295572     -0.183733     -0.157852
      9.87000      0.00000      3.29000         0.296287     -0.151358     -0.157813
     11.51500      4.93500      1.64500         0.217715      0.154224      0.455106
      1.64500      1.64500      1.64500         0.204730     -0.131493      0.192075
      6.58000      0.00000      3.29000        -0.380191     -0.011789     -0.332280
      3.29000      0.00000      0.00000         0.115331     -0.032325      0.007448
      1.64500      1.64500      4.93500         0.199375     -0.136007     -0.168448
      8.22500      1.64500      1.64500        -0.021173     -0.246980      0.277360
     11.51500      1.64500      4.93500         0.201423     -0.321880     -0.677907
     11.51500      1.64500      1.64500         0.212387     -0.331465      0.707947
      6.58000      3.29000      3.29000        -0.404484      0.010134     -0.590685
      8.22500      1.64500      4.93500         0.002604     -0.494561     -0.422452
      8.22500      4.93500      4.93500         0.103216      0.496178     -0.448919
      0.00000      3.29000      0.00000         0.452422      0.257572     -0.163734
      4.93500      1.64500      4.93500        -0.541269     -0.580290     -0.007997
      3.29000      3.29000      0.00000        -0.115597      0.033763      0.021266
      1.64500      4.93500      4.93500         0.117343      0.201135     -0.233260
      6.58000      0.00000      0.00000        -0.528923     -0.006963      0.395926
      4.93500      1.64500      1.64500        -0.412859     -0.366429      0.006020
      4.93500      4.93500      1.64500        -0.470540      0.364626     -0.004948
      0.00000      3.29000      3.29000         0.159668      0.181685      0.193320
      4.93500      4.93500      4.93500        -0.478532      0.363424      0.009046
      9.87000      3.29000      3.29000         0.182225      0.189717     -0.183342
      3.29000      3.29000      3.29000        -0.044625      0.028801     -0.020680
      0.00000      0.00000      3.29000         0.285264     -0.228333      0.201749
     11.51500      4.93500      4.93500         0.278337      0.168686     -0.570646
 -----------------------------------------------------------------------------------
    total drift:                                0.000080     -0.000027     -0.000036


--------------------------------------------------------------------------------------------------------



  FREE ENERGIE OF THE ION-ELECTRON SYSTEM (eV)
  ---------------------------------------------------
  free  energy   TOTEN  =      -375.26318066 eV

  energy  without entropy=     -375.25968241  energy(sigma->0) =     -375.26143154
 


--------------------------------------------------------------------------------------------------------


    POTLOK:  cpu time      0.0176: real time      0.0556


--------------------------------------------------------------------------------------------------------


     LOOP+:  cpu time    296.8430: real time    315.9367
    4ORBIT:  cpu time      0.0000: real time      0.0000

 total amount of memory used by VASP MPI-rank0    61683. kBytes
=======================================================================

   base      :      30000. kBytes
   nonl-proj :       9945. kBytes
   fftplans  :        778. kBytes
   grid      :       1458. kBytes
   one-center:         46. kBytes
   wavefun   :      19456. kBytes
 
  
  
 General timing and accounting informations for this job:
 ========================================================
  
                  Total CPU time used (sec):      323.093
                            User time (sec):      318.689
                          System time (sec):        4.404
                         Elapsed time (sec):      343.094
  
                   Maximum memory used (kb):      107028.
                   Average memory used (kb):          N/A
  
                          Minor page faults:        10854
                          Major page faults:            1
                 Voluntary context switches:          297
