 vasp.6.3.1 04May22 (build Jul 26 2022 04:02:40) complex                        
  
 executed on             LinuxIFC date 2023.11.30  04:33:10
 running on   48 total cores
 distrk:  each k-point on   48 cores,    1 groups
 distr:  one band on NCORE=  12 cores,    4 groups


--------------------------------------------------------------------------------------------------------


 INCAR:
   ISTART = 0
   NWRITE = 2
   PREC = Accurate
   ENCUT = 250
   GGA = PE
   NSW = 0
   ISIF = 2
   ISYM = 2
   NBLOCK = 1
   KBLOCK = 1
   IBRION = -1
   NELM = 80
   EDIFF = 1E-08
   EDIFFG = -0.01
   ALGO = Normal
   LDIAG = .TRUE.
   LREAL = .FALSE.
   ISMEAR = 0
   SIGMA = 0.02
   ICHARG = 2
   LPLANE = .TRUE.
   NPAR = 4
   LSCALU = .FALSE.
   NSIM = 4
   LWAVE = .FALSE.
   LCHARG = .FALSE.
   ICORELEVEL = 1

 POTCAR:    PAW_PBE Nb_sv 25May2007               
 POTCAR:    PAW_PBE Mo_sv 02Feb2006               
 POTCAR:    PAW_PBE Ta_pv 07Sep2000               
 POTCAR:    PAW_PBE W_sv 04Sep2015                
 POTCAR:    PAW_PBE Nb_sv 25May2007               
   SHA256 =  0e8fc07c9fcd1164cf2ade22d0399fd28f85e91cd773dfa6cf24839a48c95e24 Nb_sv/POTCAR          
   COPYR  = (c) Copyright 25May2007 Georg Kresse                                                    
   COPYR  = This file is part of the software VASP. Any use, copying, and all other rights are regul
   COPYR  = If you do not have a valid VASP license, you may not use, copy or distribute this file. 
   VRHFIN =Nb: 4p5s4d                                                                               
   LEXCH  = PE                                                                                      
   EATOM  =  1555.1913 eV,  114.3033 Ry                                                             
                                                                                                    
   TITEL  = PAW_PBE Nb_sv 25May2007                                                                 
   LULTRA =        F    use ultrasoft PP ?                                                          
   IUNSCR =        1    unscreen: 0-lin 1-nonlin 2-no                                               
   RPACOR =    1.800    partial core radius                                                         
   POMASS =   92.910; ZVAL   =   13.000    mass and valenz                                          
   RCORE  =    2.400    outmost cutoff radius                                                       
   RWIGS  =    2.400; RWIGS  =    1.270    wigner-seitz radius (au A)                               
   ENMAX  =  293.235; ENMIN  =  219.927 eV                                                          
   ICORE  =        3    local potential                                                             
   LCOR   =        T    correct aug charges                                                         
   LPAW   =        T    paw PP                                                                      
   EAUG   =  455.659                                                                                
   DEXC   =    0.000                                                                                
   RMAX   =    2.456    core radius for proj-oper                                                   
   RAUG   =    1.300    factor for augmentation sphere                                              
   RDEP   =    2.451    radius for radial grids                                                     
   RDEPT  =    1.956    core radius for aug-charge                                                  
                                                                                                    
   Atomic configuration                                                                             
   11 entries                                                                                       
     n  l   j            E        occ.                                                              
     1  0  0.50    -18805.2457   2.0000                                                             
     2  0  0.50     -2630.2869   2.0000                                                             
     2  1  1.50     -2348.4046   6.0000                                                             
     3  0  0.50      -438.8757   2.0000                                                             
     3  1  1.50      -346.7588   6.0000                                                             
     3  2  2.50      -196.2560  10.0000                                                             
     4  0  0.50       -58.3859   2.0000                                                             
     5  0  0.50        -3.9816   1.0000                                                             
     4  1  1.50       -34.5141   6.0000                                                             
     4  2  2.50        -3.0408   4.0000                                                             
     4  3  2.50        -1.3606   0.0000                                                             
   Description                                                                                      
     l       E           TYP  RCUT    TYP  RCUT                                                     
     0    -58.3859094     23  2.200                                                                 
     0     -3.9816262     23  2.200                                                                 
     1    -34.5140738     23  2.200                                                                 
     1     13.6058260     23  2.200                                                                 
     2     -3.0408010     23  2.200                                                                 
     2     -0.1283038     23  2.200                                                                 
     3     -1.3605826     23  2.400                                                                 
  local pseudopotential read in
  partial core-charges read in
  partial kinetic energy density read in
  atomic valenz-charges read in
  non local Contribution for L=           0  read in
    real space projection operators read in
  non local Contribution for L=           0  read in
    real space projection operators read in
  non local Contribution for L=           1  read in
    real space projection operators read in
  non local Contribution for L=           1  read in
    real space projection operators read in
  non local Contribution for L=           2  read in
    real space projection operators read in
  non local Contribution for L=           2  read in
    real space projection operators read in
    PAW grid and wavefunctions read in
 
   number of l-projection  operators is LMAX  =           6
   number of lm-projection operators is LMMAX =          18
 
 POTCAR:    PAW_PBE Mo_sv 02Feb2006               
   SHA256 =  2731df97e41766cc617548c5a8267718fdef1f509ac6bafa01e745abea2bdfaa Mo_sv/POTCAR          
   COPYR  = (c) Copyright 02Feb2006 Georg Kresse                                                    
   COPYR  = This file is part of the software VASP. Any use, copying, and all other rights are regul
   COPYR  = If you do not have a valid VASP license, you may not use, copy or distribute this file. 
   VRHFIN =Mo: 4p5s4d                                                                               
   LEXCH  = PE                                                                                      
   EATOM  =  1862.2866 eV,  136.8742 Ry                                                             
                                                                                                    
   TITEL  = PAW_PBE Mo_sv 02Feb2006                                                                 
   LULTRA =        F    use ultrasoft PP ?                                                          
   IUNSCR =        1    unscreen: 0-lin 1-nonlin 2-no                                               
   RPACOR =    2.200    partial core radius                                                         
   POMASS =   95.940; ZVAL   =   14.000    mass and valenz                                          
   RCORE  =    2.500    outmost cutoff radius                                                       
   RWIGS  =    2.750; RWIGS  =    1.455    wigner-seitz radius (au A)                               
   ENMAX  =  242.676; ENMIN  =  182.007 eV                                                          
   ICORE  =        3    local potential                                                             
   LCOR   =        T    correct aug charges                                                         
   LPAW   =        T    paw PP                                                                      
   EAUG   =  446.014                                                                                
   DEXC   =    0.000                                                                                
   RMAX   =    2.563    core radius for proj-oper                                                   
   RAUG   =    1.300    factor for augmentation sphere                                              
   RDEP   =    2.641    radius for radial grids                                                     
   RDEPT  =    2.031    core radius for aug-charge                                                  
                                                                                                    
   Atomic configuration                                                                             
   11 entries                                                                                       
     n  l   j            E        occ.                                                              
     1  0  0.50    -19819.0341   2.0000                                                             
     2  0  0.50     -2799.0127   2.0000                                                             
     2  1  1.50     -2502.0276   6.0000                                                             
     3  0  0.50      -476.4449   2.0000                                                             
     3  1  1.50      -379.1496   6.0000                                                             
     3  2  2.50      -220.9367  10.0000                                                             
     4  0  0.50       -64.3378   2.0000                                                             
     5  0  0.50        -4.0862   1.0000                                                             
     4  1  1.50       -38.4773   6.0000                                                             
     4  2  2.50        -3.7535   5.0000                                                             
     4  3  2.50        -1.3606   0.0000                                                             
   Description                                                                                      
     l       E           TYP  RCUT    TYP  RCUT                                                     
     0    -64.3377829     23  2.100                                                                 
     0     -4.0861640     23  2.400                                                                 
     1    -38.4772993     23  2.100                                                                 
     1     13.6058260     23  2.100                                                                 
     2     -3.7534941     23  2.400                                                                 
     2     -5.1140767     23  2.400                                                                 
     3     -4.0817478     23  2.500                                                                 
  local pseudopotential read in
  partial core-charges read in
  partial kinetic energy density read in
  atomic valenz-charges read in
  non local Contribution for L=           0  read in
    real space projection operators read in
  non local Contribution for L=           0  read in
    real space projection operators read in
  non local Contribution for L=           1  read in
    real space projection operators read in
  non local Contribution for L=           1  read in
    real space projection operators read in
  non local Contribution for L=           2  read in
    real space projection operators read in
  non local Contribution for L=           2  read in
    real space projection operators read in
    PAW grid and wavefunctions read in
 
   number of l-projection  operators is LMAX  =           6
   number of lm-projection operators is LMMAX =          18
 
 POTCAR:    PAW_PBE Ta_pv 07Sep2000               
   SHA256 =  00d0a14a36c127416459414afb8617d9754996fffa60a2465888e660b20a452f Ta_pv/POTCAR          
   COPYR  = (c) Copyright 07Sep2000 Georg Kresse                                                    
   COPYR  = This file is part of the software VASP. Any use, copying, and all other rights are regul
   COPYR  = If you do not have a valid VASP license, you may not use, copy or distribute this file. 
   VRHFIN =Ta:  5p6s5d                                                                              
   LEXCH  = PE                                                                                      
   EATOM  =  1047.1984 eV,   76.9669 Ry                                                             
                                                                                                    
   TITEL  = PAW_PBE Ta_pv 07Sep2000                                                                 
   LULTRA =        F    use ultrasoft PP ?                                                          
   IUNSCR =        1    unscreen: 0-lin 1-nonlin 2-no                                               
   RPACOR =    2.330    partial core radius                                                         
   POMASS =  180.948; ZVAL   =   11.000    mass and valenz                                          
   RCORE  =    2.500    outmost cutoff radius                                                       
   RWIGS  =    2.840; RWIGS  =    1.503    wigner-seitz radius (au A)                               
   ENMAX  =  223.667; ENMIN  =  167.750 eV                                                          
   RCLOC  =    2.205    cutoff for local pot                                                        
   LCOR   =        T    correct aug charges                                                         
   LPAW   =        T    paw PP                                                                      
   EAUG   =  377.421                                                                                
   DEXC   =    0.000                                                                                
   RMAX   =    2.551    core radius for proj-oper                                                   
   RAUG   =    1.300    factor for augmentation sphere                                              
   RDEP   =    2.526    radius for radial grids                                                     
   RDEPT  =    2.132    core radius for aug-charge                                                  
                                                                                                    
   Atomic configuration                                                                             
   15 entries                                                                                       
     n  l   j            E        occ.                                                              
     1  0  0.50    -67341.2801   2.0000                                                             
     2  0  0.50    -11566.9369   2.0000                                                             
     2  1  1.50    -10134.1175   6.0000                                                             
     3  0  0.50     -2648.5614   2.0000                                                             
     3  1  1.50     -2222.6006   6.0000                                                             
     3  2  2.50     -1726.3114  10.0000                                                             
     4  0  0.50      -538.6957   2.0000                                                             
     4  1  1.50      -399.0125   6.0000                                                             
     4  2  2.50      -220.3955  10.0000                                                             
     4  3  3.50       -23.0371  14.0000                                                             
     5  0  0.50       -71.2900   2.0000                                                             
     5  1  1.50       -37.8224   6.0000                                                             
     5  2  2.50        -2.6455   4.0000                                                             
     6  0  0.50        -4.9623   1.0000                                                             
     5  3  2.50        -1.3606   0.0000                                                             
   Description                                                                                      
     l       E           TYP  RCUT    TYP  RCUT                                                     
     1    -37.8224449     23  2.500                                                                 
     1      1.3605826     23  2.500                                                                 
     2     -2.6454718     23  2.500                                                                 
     2     -0.6258570     23  2.500                                                                 
     0     -4.9622674     23  2.500                                                                 
     0      4.7531427     23  2.500                                                                 
  local pseudopotential read in
  partial core-charges read in
  partial kinetic energy density read in
  atomic valenz-charges read in
  non local Contribution for L=           1  read in
    real space projection operators read in
  non local Contribution for L=           1  read in
    real space projection operators read in
  non local Contribution for L=           2  read in
    real space projection operators read in
  non local Contribution for L=           2  read in
    real space projection operators read in
  non local Contribution for L=           0  read in
    real space projection operators read in
  non local Contribution for L=           0  read in
    real space projection operators read in
    PAW grid and wavefunctions read in
 
   number of l-projection  operators is LMAX  =           6
   number of lm-projection operators is LMMAX =          18
 
 POTCAR:    PAW_PBE W_sv 04Sep2015                
   SHA256 =  931c2d770f65867ef30f3db3421922900fc0890ebac5c3e12f63b6a2064023d7 W_sv/POTCAR           
   COPYR  = (c) Copyright 04Sep2015 Georg Kresse                                                    
   COPYR  = This file is part of the software VASP. Any use, copying, and all other rights are regul
   COPYR  = If you do not have a valid VASP license, you may not use, copy or distribute this file. 
   VRHFIN =W : 5p6s5d                                                                               
   LEXCH  = PE                                                                                      
   EATOM  =  1865.5791 eV,  137.1162 Ry                                                             
                                                                                                    
   TITEL  = PAW_PBE W_sv 04Sep2015                                                                  
   LULTRA =        F    use ultrasoft PP ?                                                          
   IUNSCR =        1    unscreen: 0-lin 1-nonlin 2-no                                               
   RPACOR =    2.330    partial core radius                                                         
   POMASS =  183.850; ZVAL   =   14.000    mass and valenz                                          
   RCORE  =    2.500    outmost cutoff radius                                                       
   RWIGS  =    2.750; RWIGS  =    1.455    wigner-seitz radius (au A)                               
   ENMAX  =  223.057; ENMIN  =  167.293 eV                                                          
   ICORE  =        3    local potential                                                             
   LCOR   =        T    correct aug charges                                                         
   LPAW   =        T    paw PP                                                                      
   EAUG   =  373.438                                                                                
   DEXC   =    0.000                                                                                
   RMAX   =    2.565    core radius for proj-oper                                                   
   RAUG   =    1.300    factor for augmentation sphere                                              
   RDEP   =    2.539    radius for radial grids                                                     
   RDEPT  =    2.126    core radius for aug-charge                                                  
                                                                                                    
   Atomic configuration                                                                             
   15 entries                                                                                       
     n  l   j            E        occ.                                                              
     1  0  0.50    -69465.5834   2.0000                                                             
     2  0  0.50    -11986.2640   2.0000                                                             
     2  1  1.50    -10479.8613   6.0000                                                             
     3  0  0.50     -2759.0756   2.0000                                                             
     3  1  1.50     -2313.1855   6.0000                                                             
     3  2  2.50     -1801.1183  10.0000                                                             
     4  0  0.50      -567.6789   2.0000                                                             
     4  1  1.50      -421.4692   6.0000                                                             
     4  2  2.50      -236.3471  10.0000                                                             
     4  3  3.50       -31.2665  14.0000                                                             
     5  0  0.50       -77.1084   2.0000                                                             
     6  0  0.50        -5.1438   1.0000                                                             
     5  1  1.50       -41.3856   6.0000                                                             
     5  2  2.50        -3.3185   5.0000                                                             
     5  3  2.50        -1.3606   0.0000                                                             
   Description                                                                                      
     l       E           TYP  RCUT    TYP  RCUT                                                     
     0    -77.1084470     23  2.100                                                                 
     0     -5.1437956     23  2.300                                                                 
     1    -41.3855615     23  2.500                                                                 
     1     -2.7211652     23  2.500                                                                 
     2     -3.3185025     23  2.500                                                                 
     2     -1.5965151     23  2.500                                                                 
     3     -1.3605826     23  2.500                                                                 
  local pseudopotential read in
  partial core-charges read in
  partial kinetic energy density read in
  kinetic energy density of atom read in
  atomic valenz-charges read in
  non local Contribution for L=           0  read in
    real space projection operators read in
  non local Contribution for L=           0  read in
    real space projection operators read in
  non local Contribution for L=           1  read in
    real space projection operators read in
  non local Contribution for L=           1  read in
    real space projection operators read in
  non local Contribution for L=           2  read in
    real space projection operators read in
  non local Contribution for L=           2  read in
    real space projection operators read in
    PAW grid and wavefunctions read in
 
   number of l-projection  operators is LMAX  =           6
   number of lm-projection operators is LMMAX =          18
 
  PAW_PBE Nb_sv 25May2007               :
 energy of atom  1       EATOM=-1555.1913
 kinetic energy error for atom=    0.2155 (will be added to EATOM!!)
  PAW_PBE Mo_sv 02Feb2006               :
 energy of atom  2       EATOM=-1862.2866
 kinetic energy error for atom=    0.1102 (will be added to EATOM!!)
  PAW_PBE Ta_pv 07Sep2000               :
 energy of atom  3       EATOM=-1047.1984
 kinetic energy error for atom=    0.0394 (will be added to EATOM!!)
  PAW_PBE W_sv 04Sep2015                :
 energy of atom  4       EATOM=-1865.5791
 kinetic energy error for atom=    0.0589 (will be added to EATOM!!)
 
 
 POSCAR: Nb-Mo-Ta-W alloy
  positions in direct lattice
  No initial velocities read in
 exchange correlation table for  LEXCH =        8
   RHO(1)=    0.500       N(1)  =     2000
   RHO(2)=  100.500       N(2)  =     4000
 


--------------------------------------------------------------------------------------------------------


 ion  position               nearest neighbor table
   1  0.750  0.750  0.750-   2 2.85   3 2.85   6 2.85   7 2.85   8 2.85   9 2.85  11 2.85  13 2.85
                            10 3.29  10 3.29
   2  0.500  0.000  0.000-   1 2.85   4 2.85   5 2.85  10 2.85  12 2.85  14 2.85  15 2.85  16 2.85

   3  0.500  0.000  0.500-   1 2.85   4 2.85   5 2.85  10 2.85  12 2.85  14 2.85  15 2.85  16 2.85

   4  0.750  0.250  0.250-   2 2.85   3 2.85   6 2.85   7 2.85   8 2.85   9 2.85  11 2.85  13 2.85

   5  0.750  0.250  0.750-   2 2.85   3 2.85   6 2.85   7 2.85   8 2.85   9 2.85  11 2.85  13 2.85
                            15 3.29  15 3.29
   6  0.000  0.000  0.500-   1 2.85   4 2.85   5 2.85  10 2.85  12 2.85  14 2.85  15 2.85  16 2.85
                             9 3.29   8 3.29   9 3.29   8 3.29
   7  0.000  0.500  0.000-   1 2.85   4 2.85   5 2.85  10 2.85  12 2.85  14 2.85  15 2.85  16 2.85
                             8 3.29  11 3.29   9 3.29   8 3.29   9 3.29  11 3.29
   8  0.000  0.500  0.500-   1 2.85   4 2.85   5 2.85  10 2.85  12 2.85  14 2.85  15 2.85  16 2.85
                             6 3.29   7 3.29  13 3.29   7 3.29   6 3.29  13 3.29
   9  0.000  0.000  0.000-   1 2.85   4 2.85   5 2.85  10 2.85  12 2.85  14 2.85  15 2.85  16 2.85
                             7 3.29   6 3.29   6 3.29   7 3.29
  10  0.250  0.750  0.750-   2 2.85   3 2.85   6 2.85   7 2.85   8 2.85   9 2.85  11 2.85  13 2.85
                            12 3.29   1 3.29  15 3.29  12 3.29  15 3.29   1 3.29
  11  0.500  0.500  0.000-   1 2.85   4 2.85   5 2.85  10 2.85  12 2.85  14 2.85  15 2.85  16 2.85
                            13 3.29   7 3.29  13 3.29   7 3.29
  12  0.250  0.750  0.250-   2 2.85   3 2.85   6 2.85   7 2.85   8 2.85   9 2.85  11 2.85  13 2.85
                            10 3.29  14 3.29  16 3.29  10 3.29  14 3.29  16 3.29
  13  0.500  0.500  0.500-   1 2.85   4 2.85   5 2.85  10 2.85  12 2.85  14 2.85  15 2.85  16 2.85
                             8 3.29  11 3.29  11 3.29   8 3.29
  14  0.250  0.250  0.250-   2 2.85   3 2.85   6 2.85   7 2.85   8 2.85   9 2.85  11 2.85  13 2.85
                            12 3.29  15 3.29  15 3.29  12 3.29
  15  0.250  0.250  0.750-   2 2.85   3 2.85   6 2.85   7 2.85   8 2.85   9 2.85  11 2.85  13 2.85
                             5 3.29  10 3.29  14 3.29  14 3.29  10 3.29   5 3.29
  16  0.750  0.750  0.250-   2 2.85   3 2.85   6 2.85   7 2.85   8 2.85   9 2.85  11 2.85  13 2.85
                            12 3.29  12 3.29
 
  LATTYP: Found a simple cubic cell.
 ALAT       =     6.5800000000
  
  Lattice vectors:
  
 A1 = (   6.5800000000,   0.0000000000,   0.0000000000)
 A2 = (   0.0000000000,   6.5800000000,   0.0000000000)
 A3 = (   0.0000000000,   0.0000000000,   6.5800000000)


Analysis of symmetry for initial positions (statically):
=====================================================================
 Subroutine PRICEL returns:
 Original cell was already a primitive cell.
 

 Routine SETGRP: Setting up the symmetry group for a 
 simple cubic supercell.


 Subroutine GETGRP returns: Found  2 space group operations
 (whereof  1 operations were pure point group operations)
 out of a pool of 48 trial point group operations.


The static configuration has the point symmetry C_1 .
 The point group associated with its full space group is C_1h.


Analysis of symmetry for dynamics (positions and initial velocities):
=====================================================================
 Subroutine PRICEL returns:
 Original cell was already a primitive cell.
 

 Routine SETGRP: Setting up the symmetry group for a 
 simple cubic supercell.


 Subroutine GETGRP returns: Found  2 space group operations
 (whereof  1 operations were pure point group operations)
 out of a pool of 48 trial point group operations.


The dynamic configuration has the point symmetry C_1 .
 The point group associated with its full space group is C_1h.


 Subroutine INISYM returns: Found  2 space group operations
 (whereof  1 operations are pure point group operations),
 and found     1 'primitive' translations


----------------------------------------------------------------------------------------

                                     Primitive cell                                     

  volume of cell :     284.8903

  direct lattice vectors                    reciprocal lattice vectors
     6.580000000  0.000000000  0.000000000     0.151975684  0.000000000  0.000000000
     0.000000000  6.580000000  0.000000000     0.000000000  0.151975684  0.000000000
     0.000000000  0.000000000  6.580000000     0.000000000  0.000000000  0.151975684

  length of vectors
     6.580000000  6.580000000  6.580000000     0.151975684  0.151975684  0.151975684

  position of ions in fractional coordinates (direct lattice)
     0.750000000  0.750000000  0.750000000
     0.500000000  0.000000000  0.000000000
     0.500000000  0.000000000  0.500000000
     0.750000000  0.250000000  0.250000000
     0.750000000  0.250000000  0.750000000
     0.000000000  0.000000000  0.500000000
     0.000000000  0.500000000  0.000000000
     0.000000000  0.500000000  0.500000000
     0.000000000  0.000000000  0.000000000
     0.250000000  0.750000000  0.750000000
     0.500000000  0.500000000  0.000000000
     0.250000000  0.750000000  0.250000000
     0.500000000  0.500000000  0.500000000
     0.250000000  0.250000000  0.250000000
     0.250000000  0.250000000  0.750000000
     0.750000000  0.750000000  0.250000000

  ion indices of the primitive-cell ions
   primitive index   ion index
                 1           1
                 2           2
                 3           3
                 4           4
                 5           5
                 6           6
                 7           7
                 8           8
                 9           9
                10          10
                11          11
                12          12
                13          13
                14          14
                15          15
                16          16

----------------------------------------------------------------------------------------

 
 
 KPOINTS: K-Spacing Value to Generate K-Mesh: 0.03

Automatic generation of k-mesh.
 Grid dimensions read from file:
 generate k-points for:    5    5    5

 Generating k-lattice:

  Cartesian coordinates                     Fractional coordinates (reciprocal lattice)
     0.030395137  0.000000000  0.000000000     0.200000000  0.000000000  0.000000000
     0.000000000  0.030395137  0.000000000     0.000000000  0.200000000  0.000000000
     0.000000000  0.000000000  0.030395137     0.000000000  0.000000000  0.200000000

  Length of vectors
     0.030395137  0.030395137  0.030395137

  Shift w.r.t. Gamma in fractional coordinates (k-lattice)
     0.000000000  0.000000000  0.000000000

 
 Subroutine IBZKPT returns following result:
 ===========================================
 
 Found     39 irreducible k-points:
 
 Following reciprocal coordinates:
            Coordinates               Weight
  0.000000  0.000000  0.000000      1.000000
  0.200000  0.000000  0.000000      2.000000
  0.000000  0.200000  0.000000      2.000000
  0.000000  0.000000  0.200000      2.000000
  0.400000  0.000000  0.000000      2.000000
  0.000000  0.400000  0.000000      2.000000
  0.000000  0.000000  0.400000      2.000000
  0.200000  0.200000  0.000000      2.000000
  0.000000  0.200000  0.200000      4.000000
  0.200000  0.000000  0.200000      4.000000
 -0.200000  0.200000  0.000000      2.000000
  0.400000  0.200000  0.000000      2.000000
  0.000000  0.400000  0.200000      4.000000
  0.200000  0.000000  0.400000      4.000000
 -0.200000  0.400000  0.000000      2.000000
 -0.400000  0.000000  0.200000      4.000000
  0.000000  0.200000  0.400000      4.000000
  0.400000 -0.200000  0.000000      2.000000
  0.200000  0.400000  0.000000      2.000000
  0.400000  0.400000  0.000000      2.000000
  0.000000  0.400000  0.400000      4.000000
  0.400000  0.000000  0.400000      4.000000
 -0.400000  0.400000  0.000000      2.000000
  0.200000  0.200000  0.200000      4.000000
 -0.200000  0.200000  0.200000      4.000000
  0.400000  0.200000  0.200000      4.000000
  0.200000  0.400000  0.200000      4.000000
  0.200000  0.200000  0.400000      4.000000
 -0.200000  0.400000  0.200000      4.000000
 -0.400000  0.200000  0.200000      4.000000
 -0.200000  0.200000  0.400000      4.000000
  0.400000  0.400000  0.200000      4.000000
  0.200000  0.400000  0.400000      4.000000
  0.400000  0.200000  0.400000      4.000000
 -0.400000  0.400000  0.200000      4.000000
 -0.400000  0.200000  0.400000      4.000000
 -0.200000  0.400000  0.400000      4.000000
  0.400000  0.400000  0.400000      4.000000
 -0.400000  0.400000  0.400000      4.000000
 
 Following cartesian coordinates:
            Coordinates               Weight
  0.000000  0.000000  0.000000      1.000000
  0.030395  0.000000  0.000000      2.000000
  0.000000  0.030395  0.000000      2.000000
  0.000000  0.000000  0.030395      2.000000
  0.060790  0.000000  0.000000      2.000000
  0.000000  0.060790  0.000000      2.000000
  0.000000  0.000000  0.060790      2.000000
  0.030395  0.030395  0.000000      2.000000
  0.000000  0.030395  0.030395      4.000000
  0.030395  0.000000  0.030395      4.000000
 -0.030395  0.030395  0.000000      2.000000
  0.060790  0.030395  0.000000      2.000000
  0.000000  0.060790  0.030395      4.000000
  0.030395  0.000000  0.060790      4.000000
 -0.030395  0.060790  0.000000      2.000000
 -0.060790  0.000000  0.030395      4.000000
  0.000000  0.030395  0.060790      4.000000
  0.060790 -0.030395  0.000000      2.000000
  0.030395  0.060790  0.000000      2.000000
  0.060790  0.060790  0.000000      2.000000
  0.000000  0.060790  0.060790      4.000000
  0.060790  0.000000  0.060790      4.000000
 -0.060790  0.060790  0.000000      2.000000
  0.030395  0.030395  0.030395      4.000000
 -0.030395  0.030395  0.030395      4.000000
  0.060790  0.030395  0.030395      4.000000
  0.030395  0.060790  0.030395      4.000000
  0.030395  0.030395  0.060790      4.000000
 -0.030395  0.060790  0.030395      4.000000
 -0.060790  0.030395  0.030395      4.000000
 -0.030395  0.030395  0.060790      4.000000
  0.060790  0.060790  0.030395      4.000000
  0.030395  0.060790  0.060790      4.000000
  0.060790  0.030395  0.060790      4.000000
 -0.060790  0.060790  0.030395      4.000000
 -0.060790  0.030395  0.060790      4.000000
 -0.030395  0.060790  0.060790      4.000000
  0.060790  0.060790  0.060790      4.000000
 -0.060790  0.060790  0.060790      4.000000
 


--------------------------------------------------------------------------------------------------------




 Dimension of arrays:
   k-points           NKPTS =     39   k-points in BZ     NKDIM =     39   number of bands    NBANDS=    132
   number of dos      NEDOS =    301   number of ions     NIONS =     16
   non local maximal  LDIM  =      6   non local SUM 2l+1 LMDIM =     18
   total plane-waves  NPLWV =  46656
   max r-space proj   IRMAX =      1   max aug-charges    IRDMAX=   9546
   dimension x,y,z NGX =    36 NGY =   36 NGZ =   36
   dimension x,y,z NGXF=    72 NGYF=   72 NGZF=   72
   support grid    NGXF=    72 NGYF=   72 NGZF=   72
   ions per type =               4   5   1   6
   NGX,Y,Z   is equivalent  to a cutoff of   9.10,  9.10,  9.10 a.u.
   NGXF,Y,Z  is equivalent  to a cutoff of  18.19, 18.19, 18.19 a.u.

 SYSTEM =  unknown system                          
 POSCAR =  Nb-Mo-Ta-W alloy                        

 Startparameter for this run:
   NWRITE =      2    write-flag & timer
   PREC   = accura    normal or accurate (medium, high low for compatibility)
   ISTART =      0    job   : 0-new  1-cont  2-samecut
   ICHARG =      2    charge: 1-file 2-atom 10-const
   ISPIN  =      1    spin polarized calculation?
   LNONCOLLINEAR =      F non collinear calculations
   LSORBIT =      F    spin-orbit coupling
   INIWAV =      1    electr: 0-lowe 1-rand  2-diag
   LASPH  =      F    aspherical Exc in radial PAW
 Electronic Relaxation 1
   ENCUT  =  250.0 eV  18.37 Ry    4.29 a.u.   8.48  8.48  8.48*2*pi/ulx,y,z
   ENINI  =  250.0     initial cutoff
   ENAUG  =  455.7 eV  augmentation charge cutoff
   NELM   =     80;   NELMIN=  2; NELMDL= -5     # of ELM steps 
   EDIFF  = 0.1E-07   stopping-criterion for ELM
   LREAL  =      F    real-space projection
   NLSPLINE    = F    spline interpolate recip. space projectors
   LCOMPAT=      F    compatible to vasp.4.4
   GGA_COMPAT  = T    GGA compatible to vasp.4.4-vasp.4.6
   LMAXPAW     = -100 max onsite density
   LMAXMIX     =    2 max onsite mixed and CHGCAR
   VOSKOWN=      0    Vosko Wilk Nusair interpolation
   ROPT   =    0.00000   0.00000   0.00000   0.00000
 Ionic relaxation
   EDIFFG = -.1E-01   stopping-criterion for IOM
   NSW    =      0    number of steps for IOM
   NBLOCK =      1;   KBLOCK =      1    inner block; outer block 
   IBRION =     -1    ionic relax: 0-MD 1-quasi-New 2-CG
   NFREE  =      0    steps in history (QN), initial steepest desc. (CG)
   ISIF   =      2    stress and relaxation
   IWAVPR =     10    prediction:  0-non 1-charg 2-wave 3-comb
   ISYM   =      2    0-nonsym 1-usesym 2-fastsym
   LCORR  =      T    Harris-Foulkes like correction to forces

   POTIM  = 0.5000    time-step for ionic-motion
   TEIN   =    0.0    initial temperature
   TEBEG  =    0.0;   TEEND  =   0.0 temperature during run
   SMASS  =  -3.00    Nose mass-parameter (am)
   estimated Nose-frequenzy (Omega)   =  0.10E-29 period in steps = 0.13E+47 mass=  -0.989E-27a.u.
   SCALEE = 1.0000    scale energy and forces
   NPACO  =    256;   APACO  = 10.0  distance and # of slots for P.C.
   PSTRESS=    0.0 pullay stress

  Mass of Ions in am
   POMASS =  92.91 95.94180.95183.85
  Ionic Valenz
   ZVAL   =  13.00 14.00 11.00 14.00
  Atomic Wigner-Seitz radii
   RWIGS  =  -1.00 -1.00 -1.00 -1.00
  virtual crystal weights 
   VCA    =   1.00  1.00  1.00  1.00
   NELECT =     217.0000    total number of electrons
   NUPDOWN=      -1.0000    fix difference up-down

 DOS related values:
   EMIN   =  10.00;   EMAX   =-10.00  energy-range for DOS
   EFERMI =   0.00
   ISMEAR =     0;   SIGMA  =   0.02  broadening in eV -4-tet -1-fermi 0-gaus

 Electronic relaxation 2 (details)
   IALGO  =     38    algorithm
   LDIAG  =      T    sub-space diagonalisation (order eigenvalues)
   LSUBROT=      F    optimize rotation matrix (better conditioning)
   TURBO    =      0    0=normal 1=particle mesh
   IRESTART =      0    0=no restart 2=restart with 2 vectors
   NREBOOT  =      0    no. of reboots
   NMIN     =      0    reboot dimension
   EREF     =   0.00    reference energy to select bands
   IMIX   =      4    mixing-type and parameters
     AMIX     =   0.40;   BMIX     =  1.00
     AMIX_MAG =   1.60;   BMIX_MAG =  1.00
     AMIN     =   0.10
     WC   =   100.;   INIMIX=   1;  MIXPRE=   1;  MAXMIX= -45

 Intra band minimization:
   WEIMIN = 0.0000     energy-eigenvalue tresh-hold
   EBREAK =  0.19E-10  absolut break condition
   DEPER  =   0.30     relativ break condition  

   TIME   =   0.40     timestep for ELM

  volume/ion in A,a.u.               =      17.81       120.16
  Fermi-wavevector in a.u.,A,eV,Ry     =   1.495095  2.825320 30.413234  2.235310
  Thomas-Fermi vector in A             =   2.607284
 
 Write flags
   LWAVE        =      F    write WAVECAR
   LDOWNSAMPLE  =      F    k-point downsampling of WAVECAR
   LCHARG       =      F    write CHGCAR
   LVTOT        =      F    write LOCPOT, total local potential
   LVHAR        =      F    write LOCPOT, Hartree potential only
   LELF         =      F    write electronic localiz. function (ELF)
   LORBIT       =      0    0 simple, 1 ext, 2 COOP (PROOUT), +10 PAW based schemes


 Dipole corrections
   LMONO  =      F    monopole corrections only (constant potential shift)
   LDIPOL =      F    correct potential (dipole corrections)
   IDIPOL =      0    1-x, 2-y, 3-z, 4-all directions 
   EPSILON=  1.0000000 bulk dielectric constant

 Core level calculations are selected ICORELEVEL =  1
 Exchange correlation treatment:
   GGA     =    PE    GGA type
   LEXCH   =     8    internal setting for exchange type
   LIBXC   =     F    Libxc                    
   VOSKOWN =     0    Vosko Wilk Nusair interpolation
   LHFCALC =     F    Hartree Fock is set to
   LHFONE  =     F    Hartree Fock one center treatment
   AEXX    =    0.0000 exact exchange contribution

 Linear response parameters
   LEPSILON=     F    determine dielectric tensor
   LRPA    =     F    only Hartree local field effects (RPA)
   LNABLA  =     F    use nabla operator in PAW spheres
   LVEL    =     F    velocity operator in full k-point grid
   CSHIFT  =0.1000    complex shift for real part using Kramers Kronig
   OMEGAMAX=  -1.0    maximum frequency
   DEG_THRESHOLD= 0.2000000E-02 threshold for treating states as degnerate
   RTIME   =   -0.100 relaxation time in fs
  (WPLASMAI=    0.000 imaginary part of plasma frequency in eV, 0.658/RTIME)
   DFIELD  = 0.0000000 0.0000000 0.0000000 field for delta impulse in time
 
  Optional k-point grid parameters
   LKPOINTS_OPT  =     F    use optional k-point grid
   KPOINTS_OPT_MODE=     1    mode for optional k-point grid
 
 Orbital magnetization related:
   ORBITALMAG=     F  switch on orbital magnetization
   LCHIMAG   =     F  perturbation theory with respect to B field
   DQ        =  0.001000  dq finite difference perturbation B field
   LLRAUG    =     F  two centre corrections for induced B field



--------------------------------------------------------------------------------------------------------


 Static calculation
 charge density and potential will be updated during run
 non-spin polarized calculation
 Variant of blocked Davidson
 Davidson routine will perform the subspace rotation
 perform sub-space diagonalisation
    after iterative eigenvector-optimisation
 modified Broyden-mixing scheme, WC =      100.0
 initial mixing is a Kerker type mixing with AMIX =  0.4000 and BMIX =      1.0000
 Hartree-type preconditioning will be used
 using additional bands           23
 reciprocal scheme for non local part
 use partial core corrections
 calculate Harris-corrections to forces 
   (improved forces if not selfconsistent)
 use gradient corrections 
 use of overlap-Matrix (Vanderbilt PP)
 Gauss-broadening in eV      SIGMA  =   0.02


--------------------------------------------------------------------------------------------------------


  energy-cutoff  :      250.00
  volume of cell :      284.89
      direct lattice vectors                 reciprocal lattice vectors
     6.580000000  0.000000000  0.000000000     0.151975684  0.000000000  0.000000000
     0.000000000  6.580000000  0.000000000     0.000000000  0.151975684  0.000000000
     0.000000000  0.000000000  6.580000000     0.000000000  0.000000000  0.151975684

  length of vectors
     6.580000000  6.580000000  6.580000000     0.151975684  0.151975684  0.151975684


 
 k-points in units of 2pi/SCALE and weight: K-Spacing Value to Generate K-Mesh: 0.03
   0.00000000  0.00000000  0.00000000       0.008
   0.03039514  0.00000000  0.00000000       0.016
   0.00000000  0.03039514  0.00000000       0.016
   0.00000000  0.00000000  0.03039514       0.016
   0.06079027  0.00000000  0.00000000       0.016
   0.00000000  0.06079027  0.00000000       0.016
   0.00000000  0.00000000  0.06079027       0.016
   0.03039514  0.03039514  0.00000000       0.016
   0.00000000  0.03039514  0.03039514       0.032
   0.03039514  0.00000000  0.03039514       0.032
  -0.03039514  0.03039514  0.00000000       0.016
   0.06079027  0.03039514  0.00000000       0.016
   0.00000000  0.06079027  0.03039514       0.032
   0.03039514  0.00000000  0.06079027       0.032
  -0.03039514  0.06079027  0.00000000       0.016
  -0.06079027  0.00000000  0.03039514       0.032
   0.00000000  0.03039514  0.06079027       0.032
   0.06079027 -0.03039514  0.00000000       0.016
   0.03039514  0.06079027  0.00000000       0.016
   0.06079027  0.06079027  0.00000000       0.016
   0.00000000  0.06079027  0.06079027       0.032
   0.06079027  0.00000000  0.06079027       0.032
  -0.06079027  0.06079027  0.00000000       0.016
   0.03039514  0.03039514  0.03039514       0.032
  -0.03039514  0.03039514  0.03039514       0.032
   0.06079027  0.03039514  0.03039514       0.032
   0.03039514  0.06079027  0.03039514       0.032
   0.03039514  0.03039514  0.06079027       0.032
  -0.03039514  0.06079027  0.03039514       0.032
  -0.06079027  0.03039514  0.03039514       0.032
  -0.03039514  0.03039514  0.06079027       0.032
   0.06079027  0.06079027  0.03039514       0.032
   0.03039514  0.06079027  0.06079027       0.032
   0.06079027  0.03039514  0.06079027       0.032
  -0.06079027  0.06079027  0.03039514       0.032
  -0.06079027  0.03039514  0.06079027       0.032
  -0.03039514  0.06079027  0.06079027       0.032
   0.06079027  0.06079027  0.06079027       0.032
  -0.06079027  0.06079027  0.06079027       0.032
 
 k-points in reciprocal lattice and weights: K-Spacing Value to Generate K-Mesh: 0.03
   0.00000000  0.00000000  0.00000000       0.008
   0.20000000  0.00000000  0.00000000       0.016
   0.00000000  0.20000000  0.00000000       0.016
   0.00000000  0.00000000  0.20000000       0.016
   0.40000000  0.00000000  0.00000000       0.016
   0.00000000  0.40000000  0.00000000       0.016
   0.00000000  0.00000000  0.40000000       0.016
   0.20000000  0.20000000  0.00000000       0.016
   0.00000000  0.20000000  0.20000000       0.032
   0.20000000  0.00000000  0.20000000       0.032
  -0.20000000  0.20000000  0.00000000       0.016
   0.40000000  0.20000000  0.00000000       0.016
   0.00000000  0.40000000  0.20000000       0.032
   0.20000000  0.00000000  0.40000000       0.032
  -0.20000000  0.40000000  0.00000000       0.016
  -0.40000000  0.00000000  0.20000000       0.032
   0.00000000  0.20000000  0.40000000       0.032
   0.40000000 -0.20000000  0.00000000       0.016
   0.20000000  0.40000000  0.00000000       0.016
   0.40000000  0.40000000  0.00000000       0.016
   0.00000000  0.40000000  0.40000000       0.032
   0.40000000  0.00000000  0.40000000       0.032
  -0.40000000  0.40000000  0.00000000       0.016
   0.20000000  0.20000000  0.20000000       0.032
  -0.20000000  0.20000000  0.20000000       0.032
   0.40000000  0.20000000  0.20000000       0.032
   0.20000000  0.40000000  0.20000000       0.032
   0.20000000  0.20000000  0.40000000       0.032
  -0.20000000  0.40000000  0.20000000       0.032
  -0.40000000  0.20000000  0.20000000       0.032
  -0.20000000  0.20000000  0.40000000       0.032
   0.40000000  0.40000000  0.20000000       0.032
   0.20000000  0.40000000  0.40000000       0.032
   0.40000000  0.20000000  0.40000000       0.032
  -0.40000000  0.40000000  0.20000000       0.032
  -0.40000000  0.20000000  0.40000000       0.032
  -0.20000000  0.40000000  0.40000000       0.032
   0.40000000  0.40000000  0.40000000       0.032
  -0.40000000  0.40000000  0.40000000       0.032
 
 position of ions in fractional coordinates (direct lattice) 
   0.75000000  0.75000000  0.75000000
   0.50000000  0.00000000  0.00000000
   0.50000000  0.00000000  0.50000000
   0.75000000  0.25000000  0.25000000
   0.75000000  0.25000000  0.75000000
   0.00000000  0.00000000  0.50000000
   0.00000000  0.50000000  0.00000000
   0.00000000  0.50000000  0.50000000
   0.00000000  0.00000000  0.00000000
   0.25000000  0.75000000  0.75000000
   0.50000000  0.50000000  0.00000000
   0.25000000  0.75000000  0.25000000
   0.50000000  0.50000000  0.50000000
   0.25000000  0.25000000  0.25000000
   0.25000000  0.25000000  0.75000000
   0.75000000  0.75000000  0.25000000
 
 position of ions in cartesian coordinates  (Angst):
   4.93500000  4.93500000  4.93500000
   3.29000000  0.00000000  0.00000000
   3.29000000  0.00000000  3.29000000
   4.93500000  1.64500000  1.64500000
   4.93500000  1.64500000  4.93500000
   0.00000000  0.00000000  3.29000000
   0.00000000  3.29000000  0.00000000
   0.00000000  3.29000000  3.29000000
   0.00000000  0.00000000  0.00000000
   1.64500000  4.93500000  4.93500000
   3.29000000  3.29000000  0.00000000
   1.64500000  4.93500000  1.64500000
   3.29000000  3.29000000  3.29000000
   1.64500000  1.64500000  1.64500000
   1.64500000  1.64500000  4.93500000
   4.93500000  4.93500000  1.64500000
 


--------------------------------------------------------------------------------------------------------


 k-point   1 :   0.0000 0.0000 0.0000  plane waves:    2517
 k-point   2 :   0.2000 0.0000 0.0000  plane waves:    2545
 k-point   3 :   0.0000 0.2000 0.0000  plane waves:    2545
 k-point   4 :   0.0000 0.0000 0.2000  plane waves:    2545
 k-point   5 :   0.4000 0.0000 0.0000  plane waves:    2569
 k-point   6 :   0.0000 0.4000 0.0000  plane waves:    2569
 k-point   7 :   0.0000 0.0000 0.4000  plane waves:    2569
 k-point   8 :   0.2000 0.2000 0.0000  plane waves:    2562
 k-point   9 :   0.0000 0.2000 0.2000  plane waves:    2562
 k-point  10 :   0.2000 0.0000 0.2000  plane waves:    2562
 k-point  11 :  -0.2000 0.2000 0.0000  plane waves:    2562
 k-point  12 :   0.4000 0.2000 0.0000  plane waves:    2566
 k-point  13 :   0.0000 0.4000 0.2000  plane waves:    2566
 k-point  14 :   0.2000 0.0000 0.4000  plane waves:    2566
 k-point  15 :  -0.2000 0.4000 0.0000  plane waves:    2566
 k-point  16 :  -0.4000 0.0000 0.2000  plane waves:    2566
 k-point  17 :   0.0000 0.2000 0.4000  plane waves:    2566
 k-point  18 :   0.4000-0.2000 0.0000  plane waves:    2566
 k-point  19 :   0.2000 0.4000 0.0000  plane waves:    2566
 k-point  20 :   0.4000 0.4000 0.0000  plane waves:    2570
 k-point  21 :   0.0000 0.4000 0.4000  plane waves:    2570
 k-point  22 :   0.4000 0.0000 0.4000  plane waves:    2570
 k-point  23 :  -0.4000 0.4000 0.0000  plane waves:    2570
 k-point  24 :   0.2000 0.2000 0.2000  plane waves:    2572
 k-point  25 :  -0.2000 0.2000 0.2000  plane waves:    2572
 k-point  26 :   0.4000 0.2000 0.2000  plane waves:    2546
 k-point  27 :   0.2000 0.4000 0.2000  plane waves:    2546
 k-point  28 :   0.2000 0.2000 0.4000  plane waves:    2546
 k-point  29 :  -0.2000 0.4000 0.2000  plane waves:    2546
 k-point  30 :  -0.4000 0.2000 0.2000  plane waves:    2546
 k-point  31 :  -0.2000 0.2000 0.4000  plane waves:    2546
 k-point  32 :   0.4000 0.4000 0.2000  plane waves:    2549
 k-point  33 :   0.2000 0.4000 0.4000  plane waves:    2549
 k-point  34 :   0.4000 0.2000 0.4000  plane waves:    2549
 k-point  35 :  -0.4000 0.4000 0.2000  plane waves:    2549
 k-point  36 :  -0.4000 0.2000 0.4000  plane waves:    2549
 k-point  37 :  -0.2000 0.4000 0.4000  plane waves:    2549
 k-point  38 :   0.4000 0.4000 0.4000  plane waves:    2533
 k-point  39 :  -0.4000 0.4000 0.4000  plane waves:    2533

 maximum and minimum number of plane-waves per node :       234      196

 maximum number of plane-waves:      2572
 maximum index in each direction: 
   IXMAX=    8   IYMAX=    8   IZMAX=    8
   IXMIN=   -8   IYMIN=   -8   IZMIN=   -8


 parallel 3D FFT for wavefunctions:
    minimum data exchange during FFTs selected (reduces bandwidth)
 parallel 3D FFT for charge:
    minimum data exchange during FFTs selected (reduces bandwidth)


 total amount of memory used by VASP MPI-rank0    42195. kBytes
=======================================================================

   base      :      30000. kBytes
   nonl-proj :       5271. kBytes
   fftplans  :        456. kBytes
   grid      :        919. kBytes
   one-center:         31. kBytes
   wavefun   :       5518. kBytes
 
     INWAV:  cpu time      0.0003: real time      0.0020
 Broyden mixing: mesh for mixing (old mesh)
   NGX = 17   NGY = 17   NGZ = 17
  (NGX  = 72   NGY  = 72   NGZ  = 72)
  gives a total of   4913 points

 initial charge density was supplied:
 charge density of overlapping atoms calculated
 number of electron     217.0000000 magnetization 
 keeping initial charge density in first step


--------------------------------------------------------------------------------------------------------


 Maximum index for augmentation-charges          437 (set IRDMAX)


--------------------------------------------------------------------------------------------------------


 First call to EWALD:  gamma=   0.269
 Maximum number of real-space cells 3x 3x 3
 Maximum number of reciprocal cells 3x 3x 3

    FEWALD:  cpu time      0.0013: real time      0.0013


--------------------------------------- Iteration      1(   1)  ---------------------------------------


    POTLOK:  cpu time      0.0939: real time      0.1884
    SETDIJ:  cpu time      0.0036: real time      0.0039
     EDDAV:  cpu time      1.9966: real time      2.0052
       DOS:  cpu time      0.0031: real time      0.0031
    --------------------------------------------
      LOOP:  cpu time      2.0973: real time      2.2005

 eigenvalue-minimisations  : 10536
 total energy-change (2. order) : 0.2098388E+04  (-0.8530438E+04)
 number of electron     217.0000000 magnetization 
 augmentation part      217.0000000 magnetization 

 Free energy of the ion-electron system (eV)
  ---------------------------------------------------
  alpha Z        PSCENC =      1791.31350069
  Ewald energy   TEWEN  =    -23466.76558605
  -Hartree energ DENC   =     -4518.96842323
  -exchange      EXHF   =         0.00000000
  -V(xc)+E(xc)   XCENC  =       925.94589907
  PAW double counting   =     22026.01673157   -21705.76734825
  entropy T*S    EENTRO =        -0.00049321
  eigenvalues    EBANDS =      -724.45145755
  atomic energy  EATOM  =     27771.06496579
  Solvation  Ediel_sol  =         0.00000000
  ---------------------------------------------------
  free energy    TOTEN  =      2098.38778882 eV

  energy without entropy =     2098.38828203  energy(sigma->0) =     2098.38803542


--------------------------------------------------------------------------------------------------------




--------------------------------------- Iteration      1(   2)  ---------------------------------------


     EDDAV:  cpu time      2.0393: real time      2.0494
       DOS:  cpu time      0.0029: real time      0.0029
    --------------------------------------------
      LOOP:  cpu time      2.0422: real time      2.0522

 eigenvalue-minimisations  : 10560
 total energy-change (2. order) :-0.2105887E+04  (-0.2041866E+04)
 number of electron     217.0000000 magnetization 
 augmentation part      217.0000000 magnetization 

 Free energy of the ion-electron system (eV)
  ---------------------------------------------------
  alpha Z        PSCENC =      1791.31350069
  Ewald energy   TEWEN  =    -23466.76558605
  -Hartree energ DENC   =     -4518.96842323
  -exchange      EXHF   =         0.00000000
  -V(xc)+E(xc)   XCENC  =       925.94589907
  PAW double counting   =     22026.01673157   -21705.76734825
  entropy T*S    EENTRO =        -0.00277724
  eigenvalues    EBANDS =     -2830.33580101
  atomic energy  EATOM  =     27771.06496579
  Solvation  Ediel_sol  =         0.00000000
  ---------------------------------------------------
  free energy    TOTEN  =        -7.49883867 eV

  energy without entropy =       -7.49606144  energy(sigma->0) =       -7.49745006


--------------------------------------------------------------------------------------------------------




--------------------------------------- Iteration      1(   3)  ---------------------------------------


     EDDAV:  cpu time      2.6095: real time      2.6208
       DOS:  cpu time      0.0031: real time      0.0031
    --------------------------------------------
      LOOP:  cpu time      2.6126: real time      2.6239

 eigenvalue-minimisations  : 15216
 total energy-change (2. order) :-0.1764504E+03  (-0.1668838E+03)
 number of electron     217.0000000 magnetization 
 augmentation part      217.0000000 magnetization 

 Free energy of the ion-electron system (eV)
  ---------------------------------------------------
  alpha Z        PSCENC =      1791.31350069
  Ewald energy   TEWEN  =    -23466.76558605
  -Hartree energ DENC   =     -4518.96842323
  -exchange      EXHF   =         0.00000000
  -V(xc)+E(xc)   XCENC  =       925.94589907
  PAW double counting   =     22026.01673157   -21705.76734825
  entropy T*S    EENTRO =        -0.00053783
  eigenvalues    EBANDS =     -3006.78843356
  atomic energy  EATOM  =     27771.06496579
  Solvation  Ediel_sol  =         0.00000000
  ---------------------------------------------------
  free energy    TOTEN  =      -183.94923181 eV

  energy without entropy =     -183.94869398  energy(sigma->0) =     -183.94896289


--------------------------------------------------------------------------------------------------------




--------------------------------------- Iteration      1(   4)  ---------------------------------------


     EDDAV:  cpu time      2.6344: real time      2.6459
       DOS:  cpu time      0.0031: real time      0.0031
    --------------------------------------------
      LOOP:  cpu time      2.6375: real time      2.6491

 eigenvalue-minimisations  : 15168
 total energy-change (2. order) :-0.1122333E+02  (-0.1094966E+02)
 number of electron     217.0000000 magnetization 
 augmentation part      217.0000000 magnetization 

 Free energy of the ion-electron system (eV)
  ---------------------------------------------------
  alpha Z        PSCENC =      1791.31350069
  Ewald energy   TEWEN  =    -23466.76558605
  -Hartree energ DENC   =     -4518.96842323
  -exchange      EXHF   =         0.00000000
  -V(xc)+E(xc)   XCENC  =       925.94589907
  PAW double counting   =     22026.01673157   -21705.76734825
  entropy T*S    EENTRO =        -0.00088427
  eigenvalues    EBANDS =     -3018.01141319
  atomic energy  EATOM  =     27771.06496579
  Solvation  Ediel_sol  =         0.00000000
  ---------------------------------------------------
  free energy    TOTEN  =      -195.17255789 eV

  energy without entropy =     -195.17167362  energy(sigma->0) =     -195.17211575


--------------------------------------------------------------------------------------------------------




--------------------------------------- Iteration      1(   5)  ---------------------------------------


     EDDAV:  cpu time      2.8003: real time      2.8122
       DOS:  cpu time      0.0029: real time      0.0029
    CHARGE:  cpu time      0.0553: real time      0.0556
    MIXING:  cpu time      0.0002: real time      0.0002
    --------------------------------------------
      LOOP:  cpu time      2.8586: real time      2.8709

 eigenvalue-minimisations  : 16440
 total energy-change (2. order) :-0.6980211E+00  (-0.6934924E+00)
 number of electron     216.9999818 magnetization 
 augmentation part       43.7922240 magnetization 

 Broyden mixing:
  rms(total) = 0.52408E+01    rms(broyden)= 0.52394E+01
  rms(prec ) = 0.58337E+01
  weight for this iteration     100.00

 Free energy of the ion-electron system (eV)
  ---------------------------------------------------
  alpha Z        PSCENC =      1791.31350069
  Ewald energy   TEWEN  =    -23466.76558605
  -Hartree energ DENC   =     -4518.96842323
  -exchange      EXHF   =         0.00000000
  -V(xc)+E(xc)   XCENC  =       925.94589907
  PAW double counting   =     22026.01673157   -21705.76734825
  entropy T*S    EENTRO =        -0.00103787
  eigenvalues    EBANDS =     -3018.70928066
  atomic energy  EATOM  =     27771.06496579
  Solvation  Ediel_sol  =         0.00000000
  ---------------------------------------------------
  free energy    TOTEN  =      -195.87057895 eV

  energy without entropy =     -195.86954108  energy(sigma->0) =     -195.87006002


--------------------------------------------------------------------------------------------------------




--------------------------------------- Iteration      1(   6)  ---------------------------------------


    POTLOK:  cpu time      0.0039: real time      0.0040
    SETDIJ:  cpu time      0.0017: real time      0.0017
     EDDAV:  cpu time      2.1608: real time      2.1698
       DOS:  cpu time      0.0029: real time      0.0029
    CHARGE:  cpu time      0.0546: real time      0.0548
    MIXING:  cpu time      0.0003: real time      0.0003
    --------------------------------------------
      LOOP:  cpu time      2.2242: real time      2.2335

 eigenvalue-minimisations  : 12088
 total energy-change (2. order) : 0.8735590E+01  (-0.2187176E+01)
 number of electron     216.9999807 magnetization 
 augmentation part       45.5987178 magnetization 

 Broyden mixing:
  rms(total) = 0.17784E+01    rms(broyden)= 0.17781E+01
  rms(prec ) = 0.22079E+01
  weight for this iteration     100.00

 eigenvalues of (default mixing * dielectric matrix)
  average eigenvalue GAMMA=   1.4049
  1.4049

 Free energy of the ion-electron system (eV)
  ---------------------------------------------------
  alpha Z        PSCENC =      1791.31350069
  Ewald energy   TEWEN  =    -23466.76558605
  -Hartree energ DENC   =     -4270.24120124
  -exchange      EXHF   =         0.00000000
  -V(xc)+E(xc)   XCENC  =       913.63681443
  PAW double counting   =     25261.28828723   -24972.89562450
  entropy T*S    EENTRO =        -0.00107415
  eigenvalues    EBANDS =     -3214.53507092
  atomic energy  EATOM  =     27771.06496579
  Solvation  Ediel_sol  =         0.00000000
  ---------------------------------------------------
  free energy    TOTEN  =      -187.13498873 eV

  energy without entropy =     -187.13391458  energy(sigma->0) =     -187.13445165


--------------------------------------------------------------------------------------------------------




--------------------------------------- Iteration      1(   7)  ---------------------------------------


    POTLOK:  cpu time      0.0040: real time      0.0042
    SETDIJ:  cpu time      0.0017: real time      0.0017
     EDDAV:  cpu time      2.6224: real time      2.6334
       DOS:  cpu time      0.0033: real time      0.0033
    CHARGE:  cpu time      0.0589: real time      0.0591
    MIXING:  cpu time      0.0003: real time      0.0003
    --------------------------------------------
      LOOP:  cpu time      2.6906: real time      2.7019

 eigenvalue-minimisations  : 15036
 total energy-change (2. order) : 0.6149773E+00  (-0.1208440E+01)
 number of electron     216.9999810 magnetization 
 augmentation part       45.7295098 magnetization 

 Broyden mixing:
  rms(total) = 0.76738E+00    rms(broyden)= 0.76699E+00
  rms(prec ) = 0.18825E+01
  weight for this iteration     100.00

 eigenvalues of (default mixing * dielectric matrix)
  average eigenvalue GAMMA=   1.0622
  1.4996  0.6248

 Free energy of the ion-electron system (eV)
  ---------------------------------------------------
  alpha Z        PSCENC =      1791.31350069
  Ewald energy   TEWEN  =    -23466.76558605
  -Hartree energ DENC   =     -4174.94678936
  -exchange      EXHF   =         0.00000000
  -V(xc)+E(xc)   XCENC  =       908.56483645
  PAW double counting   =     27169.75506105   -26894.95054275
  entropy T*S    EENTRO =        -0.00206902
  eigenvalues    EBANDS =     -3290.55338818
  atomic energy  EATOM  =     27771.06496579
  Solvation  Ediel_sol  =         0.00000000
  ---------------------------------------------------
  free energy    TOTEN  =      -186.52001139 eV

  energy without entropy =     -186.51794237  energy(sigma->0) =     -186.51897688


--------------------------------------------------------------------------------------------------------




--------------------------------------- Iteration      1(   8)  ---------------------------------------


    POTLOK:  cpu time      0.0045: real time      0.0138
    SETDIJ:  cpu time      0.0018: real time      0.0018
     EDDAV:  cpu time      2.4304: real time      2.4411
       DOS:  cpu time      0.0032: real time      0.0032
    CHARGE:  cpu time      0.0582: real time      0.0584
    MIXING:  cpu time      0.0003: real time      0.0003
    --------------------------------------------
      LOOP:  cpu time      2.4984: real time      2.5186

 eigenvalue-minimisations  : 13768
 total energy-change (2. order) : 0.1255460E+01  (-0.5605904E+00)
 number of electron     216.9999806 magnetization 
 augmentation part       46.1228669 magnetization 

 Broyden mixing:
  rms(total) = 0.38092E+00    rms(broyden)= 0.38041E+00
  rms(prec ) = 0.59872E+00
  weight for this iteration     100.00

 eigenvalues of (default mixing * dielectric matrix)
  average eigenvalue GAMMA=   0.9975
  1.4605  1.1121  0.4198

 Free energy of the ion-electron system (eV)
  ---------------------------------------------------
  alpha Z        PSCENC =      1791.31350069
  Ewald energy   TEWEN  =    -23466.76558605
  -Hartree energ DENC   =     -4144.31302763
  -exchange      EXHF   =         0.00000000
  -V(xc)+E(xc)   XCENC  =       907.18931568
  PAW double counting   =     27577.08030098   -27306.48337838
  entropy T*S    EENTRO =        -0.00191540
  eigenvalues    EBANDS =     -3314.34872736
  atomic energy  EATOM  =     27771.06496579
  Solvation  Ediel_sol  =         0.00000000
  ---------------------------------------------------
  free energy    TOTEN  =      -185.26455168 eV

  energy without entropy =     -185.26263629  energy(sigma->0) =     -185.26359398


--------------------------------------------------------------------------------------------------------




--------------------------------------- Iteration      1(   9)  ---------------------------------------


    POTLOK:  cpu time      0.0044: real time      0.0045
    SETDIJ:  cpu time      0.0018: real time      0.0018
     EDDAV:  cpu time      2.4641: real time      2.4753
       DOS:  cpu time      0.0029: real time      0.0029
    CHARGE:  cpu time      0.0550: real time      0.0551
    MIXING:  cpu time      0.0003: real time      0.0003
    --------------------------------------------
      LOOP:  cpu time      2.5284: real time      2.5399

 eigenvalue-minimisations  : 14032
 total energy-change (2. order) :-0.1063279E-02  (-0.1191724E+00)
 number of electron     216.9999808 magnetization 
 augmentation part       46.1419495 magnetization 

 Broyden mixing:
  rms(total) = 0.28306E+00    rms(broyden)= 0.28302E+00
  rms(prec ) = 0.40301E+00
  weight for this iteration     100.00

 eigenvalues of (default mixing * dielectric matrix)
  average eigenvalue GAMMA=   1.1025
  1.7236  1.7236  0.5894  0.3733

 Free energy of the ion-electron system (eV)
  ---------------------------------------------------
  alpha Z        PSCENC =      1791.31350069
  Ewald energy   TEWEN  =    -23466.76558605
  -Hartree energ DENC   =     -4142.63634500
  -exchange      EXHF   =         0.00000000
  -V(xc)+E(xc)   XCENC  =       907.11675266
  PAW double counting   =     27672.88433058   -27402.00746834
  entropy T*S    EENTRO =        -0.00115769
  eigenvalues    EBANDS =     -3316.23460759
  atomic energy  EATOM  =     27771.06496579
  Solvation  Ediel_sol  =         0.00000000
  ---------------------------------------------------
  free energy    TOTEN  =      -185.26561496 eV

  energy without entropy =     -185.26445727  energy(sigma->0) =     -185.26503612


--------------------------------------------------------------------------------------------------------




--------------------------------------- Iteration      1(  10)  ---------------------------------------


    POTLOK:  cpu time      0.0044: real time      0.0046
    SETDIJ:  cpu time      0.0017: real time      0.0017
     EDDAV:  cpu time      2.4766: real time      2.4873
       DOS:  cpu time      0.0028: real time      0.0028
    CHARGE:  cpu time      0.0579: real time      0.0581
    MIXING:  cpu time      0.0003: real time      0.0003
    --------------------------------------------
      LOOP:  cpu time      2.5438: real time      2.5549

 eigenvalue-minimisations  : 13888
 total energy-change (2. order) : 0.3517793E-01  (-0.3005984E-01)
 number of electron     216.9999808 magnetization 
 augmentation part       46.0764126 magnetization 

 Broyden mixing:
  rms(total) = 0.12002E+00    rms(broyden)= 0.11999E+00
  rms(prec ) = 0.19189E+00
  weight for this iteration     100.00

 eigenvalues of (default mixing * dielectric matrix)
  average eigenvalue GAMMA=   1.1382
  2.2763  1.7189  0.8844  0.4293  0.3823

 Free energy of the ion-electron system (eV)
  ---------------------------------------------------
  alpha Z        PSCENC =      1791.31350069
  Ewald energy   TEWEN  =    -23466.76558605
  -Hartree energ DENC   =     -4144.05212107
  -exchange      EXHF   =         0.00000000
  -V(xc)+E(xc)   XCENC  =       907.15255489
  PAW double counting   =     27721.67995411   -27449.63050131
  entropy T*S    EENTRO =        -0.00129848
  eigenvalues    EBANDS =     -3315.99190558
  atomic energy  EATOM  =     27771.06496579
  Solvation  Ediel_sol  =         0.00000000
  ---------------------------------------------------
  free energy    TOTEN  =      -185.23043703 eV

  energy without entropy =     -185.22913855  energy(sigma->0) =     -185.22978779


--------------------------------------------------------------------------------------------------------




--------------------------------------- Iteration      1(  11)  ---------------------------------------


    POTLOK:  cpu time      0.0044: real time      0.0045
    SETDIJ:  cpu time      0.0017: real time      0.0017
     EDDAV:  cpu time      2.4565: real time      2.4682
       DOS:  cpu time      0.0031: real time      0.0031
    CHARGE:  cpu time      0.0551: real time      0.0553
    MIXING:  cpu time      0.0003: real time      0.0003
    --------------------------------------------
      LOOP:  cpu time      2.5210: real time      2.5331

 eigenvalue-minimisations  : 13968
 total energy-change (2. order) : 0.9126230E-03  (-0.8711001E-02)
 number of electron     216.9999808 magnetization 
 augmentation part       46.0581984 magnetization 

 Broyden mixing:
  rms(total) = 0.51966E-01    rms(broyden)= 0.51911E-01
  rms(prec ) = 0.14092E+00
  weight for this iteration     100.00

 eigenvalues of (default mixing * dielectric matrix)
  average eigenvalue GAMMA=   1.0597
  2.4599  1.6560  0.9162  0.4786  0.4786  0.3687

 Free energy of the ion-electron system (eV)
  ---------------------------------------------------
  alpha Z        PSCENC =      1791.31350069
  Ewald energy   TEWEN  =    -23466.76558605
  -Hartree energ DENC   =     -4143.92604913
  -exchange      EXHF   =         0.00000000
  -V(xc)+E(xc)   XCENC  =       907.14195579
  PAW double counting   =     27742.80029781   -27469.99718572
  entropy T*S    EENTRO =        -0.00121933
  eigenvalues    EBANDS =     -3316.86020424
  atomic energy  EATOM  =     27771.06496579
  Solvation  Ediel_sol  =         0.00000000
  ---------------------------------------------------
  free energy    TOTEN  =      -185.22952440 eV

  energy without entropy =     -185.22830507  energy(sigma->0) =     -185.22891474


--------------------------------------------------------------------------------------------------------




--------------------------------------- Iteration      1(  12)  ---------------------------------------


    POTLOK:  cpu time      0.0040: real time      0.0041
    SETDIJ:  cpu time      0.0017: real time      0.0017
     EDDAV:  cpu time      2.3723: real time      2.3828
       DOS:  cpu time      0.0030: real time      0.0030
    CHARGE:  cpu time      0.0583: real time      0.0585
    MIXING:  cpu time      0.0003: real time      0.0003
    --------------------------------------------
      LOOP:  cpu time      2.4395: real time      2.4505

 eigenvalue-minimisations  : 13280
 total energy-change (2. order) : 0.6539300E-02  (-0.2663945E-02)
 number of electron     216.9999808 magnetization 
 augmentation part       46.0545548 magnetization 

 Broyden mixing:
  rms(total) = 0.20816E-01    rms(broyden)= 0.20780E-01
  rms(prec ) = 0.42475E-01
  weight for this iteration     100.00

 eigenvalues of (default mixing * dielectric matrix)
  average eigenvalue GAMMA=   1.0279
  2.5140  1.6255  0.9117  0.9117  0.4725  0.3747  0.3854

 Free energy of the ion-electron system (eV)
  ---------------------------------------------------
  alpha Z        PSCENC =      1791.31350069
  Ewald energy   TEWEN  =    -23466.76558605
  -Hartree energ DENC   =     -4143.53964899
  -exchange      EXHF   =         0.00000000
  -V(xc)+E(xc)   XCENC  =       907.12649140
  PAW double counting   =     27753.10772367   -27480.07487981
  entropy T*S    EENTRO =        -0.00124230
  eigenvalues    EBANDS =     -3317.45430950
  atomic energy  EATOM  =     27771.06496579
  Solvation  Ediel_sol  =         0.00000000
  ---------------------------------------------------
  free energy    TOTEN  =      -185.22298510 eV

  energy without entropy =     -185.22174280  energy(sigma->0) =     -185.22236395


--------------------------------------------------------------------------------------------------------




--------------------------------------- Iteration      1(  13)  ---------------------------------------


    POTLOK:  cpu time      0.0044: real time      0.0046
    SETDIJ:  cpu time      0.0017: real time      0.0017
     EDDAV:  cpu time      2.5620: real time      2.5727
       DOS:  cpu time      0.0030: real time      0.0030
    CHARGE:  cpu time      0.0581: real time      0.0583
    MIXING:  cpu time      0.0004: real time      0.0004
    --------------------------------------------
      LOOP:  cpu time      2.6295: real time      2.6406

 eigenvalue-minimisations  : 14688
 total energy-change (2. order) : 0.4706405E-03  (-0.5865264E-03)
 number of electron     216.9999808 magnetization 
 augmentation part       46.0698073 magnetization 

 Broyden mixing:
  rms(total) = 0.11919E-01    rms(broyden)= 0.11913E-01
  rms(prec ) = 0.18104E-01
  weight for this iteration     100.00

 eigenvalues of (default mixing * dielectric matrix)
  average eigenvalue GAMMA=   1.0450
  2.5120  1.7204  1.3134  1.0589  0.4983  0.4983  0.3967  0.3617

 Free energy of the ion-electron system (eV)
  ---------------------------------------------------
  alpha Z        PSCENC =      1791.31350069
  Ewald energy   TEWEN  =    -23466.76558605
  -Hartree energ DENC   =     -4142.87070397
  -exchange      EXHF   =         0.00000000
  -V(xc)+E(xc)   XCENC  =       907.09693354
  PAW double counting   =     27760.51741692   -27487.37139469
  entropy T*S    EENTRO =        -0.00123450
  eigenvalues    EBANDS =     -3318.20641218
  atomic energy  EATOM  =     27771.06496579
  Solvation  Ediel_sol  =         0.00000000
  ---------------------------------------------------
  free energy    TOTEN  =      -185.22251446 eV

  energy without entropy =     -185.22127996  energy(sigma->0) =     -185.22189721


--------------------------------------------------------------------------------------------------------




--------------------------------------- Iteration      1(  14)  ---------------------------------------


    POTLOK:  cpu time      0.0044: real time      0.0046
    SETDIJ:  cpu time      0.0017: real time      0.0017
     EDDAV:  cpu time      2.4321: real time      2.4426
       DOS:  cpu time      0.0031: real time      0.0032
    CHARGE:  cpu time      0.0582: real time      0.0584
    MIXING:  cpu time      0.0004: real time      0.0004
    --------------------------------------------
      LOOP:  cpu time      2.4999: real time      2.5109

 eigenvalue-minimisations  : 13744
 total energy-change (2. order) : 0.7314381E-04  (-0.1061076E-03)
 number of electron     216.9999808 magnetization 
 augmentation part       46.0735453 magnetization 

 Broyden mixing:
  rms(total) = 0.77418E-02    rms(broyden)= 0.77397E-02
  rms(prec ) = 0.11562E-01
  weight for this iteration     100.00

 eigenvalues of (default mixing * dielectric matrix)
  average eigenvalue GAMMA=   1.0458
  2.5567  1.9589  1.4396  1.0815  0.6297  0.5413  0.4483  0.3954  0.3612

 Free energy of the ion-electron system (eV)
  ---------------------------------------------------
  alpha Z        PSCENC =      1791.31350069
  Ewald energy   TEWEN  =    -23466.76558605
  -Hartree energ DENC   =     -4142.74145131
  -exchange      EXHF   =         0.00000000
  -V(xc)+E(xc)   XCENC  =       907.09097282
  PAW double counting   =     27759.91542514   -27486.61624430
  entropy T*S    EENTRO =        -0.00123311
  eigenvalues    EBANDS =     -3318.48279098
  atomic energy  EATOM  =     27771.06496579
  Solvation  Ediel_sol  =         0.00000000
  ---------------------------------------------------
  free energy    TOTEN  =      -185.22244132 eV

  energy without entropy =     -185.22120821  energy(sigma->0) =     -185.22182477


--------------------------------------------------------------------------------------------------------




--------------------------------------- Iteration      1(  15)  ---------------------------------------


    POTLOK:  cpu time      0.0044: real time      0.0046
    SETDIJ:  cpu time      0.0017: real time      0.0017
     EDDAV:  cpu time      2.5342: real time      2.5446
       DOS:  cpu time      0.0032: real time      0.0032
    CHARGE:  cpu time      0.0581: real time      0.0583
    MIXING:  cpu time      0.0004: real time      0.0004
    --------------------------------------------
      LOOP:  cpu time      2.6020: real time      2.6128

 eigenvalue-minimisations  : 14544
 total energy-change (2. order) : 0.3007436E-04  (-0.2799620E-04)
 number of electron     216.9999808 magnetization 
 augmentation part       46.0750579 magnetization 

 Broyden mixing:
[...]
     41     -24.7434      2.00000
     42     -24.7278      2.00000
     43     -24.7009      2.00000
     44     -24.6984      2.00000
     45     -24.6935      2.00000
     46     -24.6026      2.00000
     47     -24.5747      2.00000
     48     -24.5679      2.00000
     49     -23.9504      2.00000
     50     -23.9399      2.00000
     51     -23.9076      2.00000
     52     -20.8640      2.00000
     53     -20.8182      2.00000
     54     -20.7462      2.00000
     55     -20.7359      2.00000
     56     -20.6015      2.00000
     57     -20.5889      2.00000
     58     -20.5259      2.00000
     59     -20.4890      2.00000
     60     -20.3695      2.00000
     61     -20.3637      2.00000
     62     -20.2797      2.00000
     63     -20.2720      2.00000
     64       4.4506      2.00000
     65       5.0421      2.00000
     66       5.2199      2.00000
     67       5.5719      2.00000
     68       5.8357      2.00000
     69       6.1000      2.00000
     70       6.3027      2.00000
     71       6.8219      2.00000
     72       7.0468      2.00000
     73       7.0954      2.00000
     74       7.1245      2.00000
     75       7.1569      2.00000
     76       7.2093      2.00000
     77       7.3114      2.00000
     78       7.3319      2.00000
     79       7.3726      2.00000
     80       7.4415      2.00000
     81       7.4595      2.00000
     82       7.5329      2.00000
     83       7.5607      2.00000
     84       7.8283      2.00000
     85       7.8457      2.00000
     86       7.8780      2.00000
     87       7.9811      2.00000
     88       8.0017      2.00000
     89       8.0441      2.00000
     90       8.0590      2.00000
     91       8.0727      2.00000
     92       8.1156      2.00000
     93       8.1357      2.00000
     94       8.1653      2.00000
     95       8.1943      2.00000
     96       8.2263      2.00000
     97       8.2561      2.00000
     98       8.2765      2.00000
     99       8.2957      2.00000
    100       8.3579      2.00000
    101       8.3775      2.00000
    102       8.4137      2.00000
    103       8.4388      2.00000
    104       8.4914      2.00000
    105       8.5326      2.00000
    106       8.5485      2.00000
    107       8.6030      2.00000
    108       8.6534      2.00000
    109       8.7005      2.00000
    110       8.7460      2.00000
    111       9.1464      2.00000
    112      11.7433      0.00000
    113      11.8275      0.00000
    114      11.9150      0.00000
    115      11.9392      0.00000
    116      11.9683      0.00000
    117      12.0071      0.00000
    118      12.0798      0.00000
    119      12.1150      0.00000
    120      12.1550      0.00000
    121      12.2172      0.00000
    122      12.3015      0.00000
    123      12.3446      0.00000
    124      12.3802      0.00000
    125      12.4283      0.00000
    126      12.4672      0.00000
    127      12.5304      0.00000
    128      12.5922      0.00000
    129      12.6352      0.00000
    130      12.7205      0.00000
    131      12.7815      0.00000
    132      12.8452      0.00000

 k-point    39 :      -0.4000    0.4000    0.4000
  band No.  band energies     occupation 
      1     -63.8516      2.00000
      2     -63.8361      2.00000
      3     -63.8220      2.00000
      4     -63.7881      2.00000
      5     -63.7170      2.00000
      6     -63.7139      2.00000
      7     -50.7256      2.00000
      8     -50.6623      2.00000
      9     -50.6546      2.00000
     10     -50.6177      2.00000
     11     -50.6115      2.00000
     12     -44.5337      2.00000
     13     -44.5222      2.00000
     14     -44.4032      2.00000
     15     -44.4010      2.00000
     16     -28.2153      2.00000
     17     -28.1857      2.00000
     18     -28.1762      2.00000
     19     -28.1253      2.00000
     20     -28.0867      2.00000
     21     -28.0652      2.00000
     22     -28.0494      2.00000
     23     -28.0137      2.00000
     24     -28.0108      2.00000
     25     -28.0037      2.00000
     26     -27.9834      2.00000
     27     -27.9768      2.00000
     28     -27.8591      2.00000
     29     -27.8425      2.00000
     30     -27.8382      2.00000
     31     -27.7713      2.00000
     32     -27.7312      2.00000
     33     -27.7185      2.00000
     34     -24.9727      2.00000
     35     -24.9492      2.00000
     36     -24.9407      2.00000
     37     -24.8071      2.00000
     38     -24.7796      2.00000
     39     -24.7706      2.00000
     40     -24.7534      2.00000
     41     -24.7435      2.00000
     42     -24.7278      2.00000
     43     -24.7007      2.00000
     44     -24.6984      2.00000
     45     -24.6934      2.00000
     46     -24.6022      2.00000
     47     -24.5743      2.00000
     48     -24.5679      2.00000
     49     -23.9505      2.00000
     50     -23.9403      2.00000
     51     -23.9077      2.00000
     52     -20.8639      2.00000
     53     -20.8180      2.00000
     54     -20.7463      2.00000
     55     -20.7357      2.00000
     56     -20.6015      2.00000
     57     -20.5889      2.00000
     58     -20.5259      2.00000
     59     -20.4890      2.00000
     60     -20.3695      2.00000
     61     -20.3640      2.00000
     62     -20.2799      2.00000
     63     -20.2720      2.00000
     64       4.4296      2.00000
     65       5.0917      2.00000
     66       5.3220      2.00000
     67       5.4236      2.00000
     68       5.8667      2.00000
     69       6.0469      2.00000
     70       6.3147      2.00000
     71       6.8373      2.00000
     72       7.0399      2.00000
     73       7.0775      2.00000
     74       7.1157      2.00000
     75       7.1838      2.00000
     76       7.2188      2.00000
     77       7.3076      2.00000
     78       7.3474      2.00000
     79       7.4007      2.00000
     80       7.4419      2.00000
     81       7.4768      2.00000
     82       7.4974      2.00000
     83       7.5438      2.00000
     84       7.8131      2.00000
     85       7.8301      2.00000
     86       7.9062      2.00000
     87       7.9515      2.00000
     88       7.9946      2.00000
     89       8.0428      2.00000
     90       8.0668      2.00000
     91       8.0931      2.00000
     92       8.1079      2.00000
     93       8.1334      2.00000
     94       8.1672      2.00000
     95       8.2225      2.00000
     96       8.2431      2.00000
     97       8.2705      2.00000
     98       8.2995      2.00000
     99       8.3282      2.00000
    100       8.3404      2.00000
    101       8.3644      2.00000
    102       8.3921      2.00000
    103       8.4169      2.00000
    104       8.4658      2.00000
    105       8.5225      2.00000
    106       8.5567      2.00000
    107       8.5819      2.00000
    108       8.6623      2.00000
    109       8.7514      2.00000
    110       8.7598      2.00000
    111       9.1057      2.00000
    112      11.7249      0.00000
    113      11.8068      0.00000
    114      11.9232      0.00000
    115      11.9504      0.00000
    116      11.9905      0.00000
    117      12.0403      0.00000
    118      12.0980      0.00000
    119      12.1284      0.00000
    120      12.1663      0.00000
    121      12.2427      0.00000
    122      12.2714      0.00000
    123      12.3255      0.00000
    124      12.3833      0.00000
    125      12.3945      0.00000
    126      12.4572      0.00000
    127      12.5078      0.00000
    128      12.5841      0.00000
    129      12.6024      0.00000
    130      12.7194      0.00000
    131      12.8009      0.00000
    132      12.8879      0.00000


--------------------------------------------------------------------------------------------------------


 soft charge-density along one line, spin component           1
         0         1         2         3         4         5         6         7         8         9
 total charge-density along one line
 
 pseudopotential strength for first ion, spin component:           1
  5.754 -20.204  -0.001  -0.000   0.003   0.003   0.000  -0.006
-20.204   9.128  -0.002  -0.000   0.004   0.000   0.000  -0.000
 -0.001  -0.002  -9.701   0.000  -0.001   5.925  -0.000   0.001
 -0.000  -0.000   0.000  -9.703   0.000  -0.000   5.927  -0.000
  0.003   0.004  -0.001   0.000  -9.701   0.001  -0.000   5.926
  0.003   0.000   5.925  -0.000   0.001   7.990   0.000  -0.001
  0.000   0.000  -0.000   5.927  -0.000   0.000   7.988   0.000
 -0.006  -0.000   0.001  -0.000   5.926  -0.001   0.000   7.989
 -0.001  -0.000   0.002  -0.000  -0.001  -0.003   0.000   0.002
  0.000   0.000  -0.000  -0.001  -0.000   0.000   0.002   0.000
 -0.001  -0.000   0.001  -0.000  -0.001  -0.001   0.000   0.001
  0.000   0.000  -0.000   0.002  -0.000   0.000  -0.003   0.000
 -0.000  -0.000   0.001   0.000   0.002  -0.001  -0.000  -0.002
 -0.001  -0.000   0.003  -0.000  -0.002  -0.004   0.000   0.002
  0.000   0.000  -0.000  -0.002  -0.000   0.000   0.002   0.000
 -0.001  -0.000   0.001  -0.000  -0.001  -0.001   0.000   0.002
  0.000   0.000  -0.000   0.003  -0.000   0.000  -0.004   0.000
 -0.000  -0.000   0.001   0.000   0.002  -0.001  -0.000  -0.003
 total augmentation occupancy for first ion, spin component:           1
  1.995  -0.049   0.000   0.000   0.000   0.000   0.000   0.000  -0.006   0.000  -0.002   0.000   0.000   0.005   0.000   0.002
 -0.049   1.315   0.002   0.000  -0.000   0.002   0.000  -0.004   0.007   0.000  -0.019   0.000   0.019  -0.017   0.000   0.006
  0.000   0.002   1.996   0.000   0.000  -0.033   0.000  -0.001  -0.002   0.000   0.001   0.000   0.002   0.002   0.000  -0.001
  0.000   0.000   0.000   1.996   0.000   0.000  -0.033   0.000   0.000   0.008   0.000  -0.002   0.000   0.000  -0.005   0.000
  0.000  -0.000   0.000   0.000   1.996  -0.001   0.000  -0.034   0.008   0.000  -0.004   0.000   0.007  -0.005   0.000   0.002
  0.000   0.002  -0.033   0.000  -0.001   0.069   0.000   0.002  -0.007   0.000  -0.004   0.000  -0.006   0.002   0.000   0.001
  0.000   0.000   0.000  -0.033   0.000   0.000   0.070   0.000   0.000  -0.010   0.000  -0.007   0.000   0.000   0.007   0.000
  0.000  -0.004  -0.001   0.000  -0.034   0.002   0.000   0.072  -0.010   0.000   0.007   0.000  -0.012   0.007   0.000  -0.003
 -0.006   0.007  -0.002   0.000   0.008  -0.007   0.000  -0.010   3.180   0.000   0.041   0.000  -0.004  -1.316   0.000  -0.015
  0.000   0.000   0.000   0.008   0.000   0.000  -0.010   0.000   0.000   3.194   0.000   0.084   0.000   0.000  -1.317   0.000
 -0.002  -0.019   0.001   0.000  -0.004  -0.004   0.000   0.007   0.041   0.000   2.463   0.000  -0.017  -0.015   0.000  -1.110
  0.000   0.000   0.000  -0.002   0.000   0.000  -0.007   0.000   0.000   0.084   0.000   3.178   0.000   0.000  -0.056   0.000
  0.000   0.019   0.002   0.000   0.007  -0.006   0.000  -0.012  -0.004   0.000  -0.017   0.000   2.502   0.001   0.000   0.009
  0.005  -0.017   0.002   0.000  -0.005   0.002   0.000   0.007  -1.316   0.000  -0.015   0.000   0.001   0.556   0.000   0.005
  0.000   0.000   0.000  -0.005   0.000   0.000   0.007   0.000   0.000  -1.317   0.000  -0.056   0.000   0.000   0.556   0.000
  0.002   0.006  -0.001   0.000   0.002   0.001   0.000  -0.003  -0.015   0.000  -1.110   0.000   0.009   0.005   0.000   0.507
  0.000   0.000   0.000   0.001   0.000   0.000   0.002   0.000   0.000  -0.056   0.000  -1.317   0.000   0.000   0.032   0.000
 -0.000  -0.009  -0.001   0.000  -0.004   0.002   0.000   0.005   0.001   0.000   0.009   0.000  -1.119  -0.000   0.000  -0.005


------------------------ aborting loop because EDIFF is reached ----------------------------------------


    CHARGE:  cpu time      0.0582: real time      0.0584
    FORLOC:  cpu time      0.0005: real time      0.0005
    FORNL :  cpu time      0.5158: real time      0.5174
    STRESS:  cpu time      0.6335: real time      0.6355
    FORCOR:  cpu time      0.0045: real time      0.0045
    FORHAR:  cpu time      0.0015: real time      0.0016
    MIXING:  cpu time      0.0006: real time      0.0006
    OFIELD:  cpu time      0.0000: real time      0.0000

  FORCE on cell =-STRESS in cart. coord.  units (eV):
  Direction    XX          YY          ZZ          XY          YZ          ZX
  --------------------------------------------------------------------------------------
  Alpha Z  1791.31350  1791.31350  1791.31350
  Ewald   -7813.15481 -7830.19758 -7823.48789     6.32305     0.00000     0.00000
  Hartree  1388.09108  1374.39323  1380.31757     4.54533    -0.00000    -0.00000
  E(xc)   -1012.14902 -1012.13127 -1012.11382    -0.00303     0.00000     0.00000
  Local    1762.11019  1791.59752  1779.62950    -9.97123    -0.00000     0.00000
  n-local  -233.44783  -231.80133  -234.44317    -0.58667     0.28425    -0.23530
  augment   662.35166   662.44589   662.47619    -0.11740     0.00000    -0.00000
  Kinetic  3420.10351  3419.40752  3421.27153    -0.46184    -4.56737    -0.68401
  Fock        0.00000     0.00000     0.00000     0.00000     0.00000     0.00000
  -------------------------------------------------------------------------------------
  Total     -34.78171   -34.97252   -35.03660    -0.27180     0.00000     0.00000
  in kB    -195.60675  -196.67986  -197.04021    -1.52858     0.00000     0.00000
  external pressure =     -196.44 kB  Pullay stress =        0.00 kB


 VOLUME and BASIS-vectors are now :
 -----------------------------------------------------------------------------
  energy-cutoff  :      250.00
  volume of cell :      284.89
      direct lattice vectors                 reciprocal lattice vectors
     6.580000000  0.000000000  0.000000000     0.151975684  0.000000000  0.000000000
     0.000000000  6.580000000  0.000000000     0.000000000  0.151975684  0.000000000
     0.000000000  0.000000000  6.580000000     0.000000000  0.000000000  0.151975684

  length of vectors
     6.580000000  6.580000000  6.580000000     0.151975684  0.151975684  0.151975684


 FORCES acting on ions
    electron-ion (+dipol)            ewald-force                    non-local-force                 convergence-correction
 -----------------------------------------------------------------------------------------------
   0.208E+02 -.208E+02 0.398E-11   -.204E+02 0.204E+02 0.105E-13   0.591E-01 0.118E+00 0.000E+00   0.150E-03 -.181E-03 0.147E-12
   0.100E+02 0.308E+02 0.309E+02   -.102E+02 -.306E+02 -.306E+02   0.112E+00 0.307E-02 -.486E-01   -.305E-03 0.233E-03 -.130E-03
   0.100E+02 0.308E+02 -.309E+02   -.102E+02 -.306E+02 0.306E+02   0.112E+00 0.307E-02 0.486E-01   -.305E-03 0.233E-03 0.130E-03
   0.208E+02 0.208E+02 -.682E-12   -.204E+02 -.204E+02 -.830E-15   0.407E-01 -.116E+00 0.000E+00   0.316E-04 0.181E-03 -.195E-12
   0.221E+02 0.223E+02 0.504E-11   -.220E+02 -.220E+02 -.474E-15   0.137E+00 0.556E-01 0.000E+00   0.155E-04 0.159E-03 0.163E-12
   -.108E+02 0.331E+02 -.332E+02   0.110E+02 -.329E+02 0.329E+02   -.340E-01 0.359E-01 0.154E-01   0.310E-03 0.207E-03 0.994E-04
   -.108E+02 -.331E+02 0.332E+02   0.110E+02 0.329E+02 -.329E+02   -.620E-01 -.347E-01 -.141E-01   0.350E-03 -.186E-03 -.884E-04
   -.108E+02 -.331E+02 -.332E+02   0.110E+02 0.329E+02 0.329E+02   -.620E-01 -.347E-01 0.141E-01   0.350E-03 -.186E-03 0.884E-04
   -.108E+02 0.331E+02 0.332E+02   0.110E+02 -.329E+02 -.329E+02   -.340E-01 0.359E-01 -.154E-01   0.310E-03 0.207E-03 -.994E-04
   -.177E+02 -.176E+02 0.153E-12   0.173E+02 0.173E+02 0.184E-14   -.116E+00 -.309E-01 0.000E+00   -.482E-04 -.172E-03 0.117E-12
   0.109E+02 -.331E+02 0.331E+02   -.110E+02 0.329E+02 -.329E+02   -.100E+00 -.365E-01 0.400E-01   -.356E-03 -.171E-03 -.131E-03
   -.223E+02 -.222E+02 0.685E-12   0.220E+02 0.220E+02 0.251E-13   -.819E-01 -.117E+00 0.000E+00   0.637E-05 -.219E-03 -.210E-12
   0.109E+02 -.331E+02 -.331E+02   -.110E+02 0.329E+02 0.329E+02   -.100E+00 -.365E-01 -.400E-01   -.356E-03 -.171E-03 0.131E-03
   -.222E+02 0.222E+02 0.687E-12   0.220E+02 -.220E+02 0.157E-13   -.150E+00 0.144E+00 0.000E+00   0.479E-04 0.153E-03 -.203E-12
   -.223E+02 0.222E+02 0.644E-12   0.220E+02 -.220E+02 0.434E-13   -.804E-01 0.127E+00 0.000E+00   0.129E-03 0.170E-03 0.129E-12
   0.222E+02 -.222E+02 -.757E-11   -.220E+02 0.220E+02 0.271E-13   0.117E+00 -.191E+00 0.000E+00   0.467E-05 -.188E-03 -.209E-12
 -----------------------------------------------------------------------------------------------
   0.244E+00 0.744E-01 0.425E-11   0.249E-12 0.160E-12 -.621E-14   -.244E+00 -.745E-01 0.000E+00   0.335E-03 0.684E-04 -.343E-12
 
 
 POSITION                                       TOTAL-FORCE (eV/Angst)
 -----------------------------------------------------------------------------------
      4.93500      4.93500      4.93500         0.475359     -0.309486      0.000000
      3.29000      0.00000      0.00000        -0.060759      0.244781      0.208662
      3.29000      0.00000      3.29000        -0.060759      0.244781     -0.208662
      4.93500      1.64500      1.64500         0.491346      0.333627      0.000000
      4.93500      1.64500      4.93500         0.270972      0.357630      0.000000
      0.00000      0.00000      3.29000         0.178638      0.157947     -0.196629
      0.00000      3.29000      0.00000         0.159432     -0.187717      0.195006
      0.00000      3.29000      3.29000         0.159432     -0.187717     -0.195006
      0.00000      0.00000      0.00000         0.178638      0.157947      0.196629
      1.64500      4.93500      4.93500        -0.588269     -0.408952      0.000000
      3.29000      3.29000      0.00000        -0.202940     -0.219007      0.212307
      1.64500      4.93500      1.64500        -0.372052     -0.368136      0.000000
      3.29000      3.29000      3.29000        -0.202940     -0.219007     -0.212307
      1.64500      1.64500      1.64500        -0.388190      0.395704      0.000000
      1.64500      1.64500      4.93500        -0.387394      0.411375      0.000000
      4.93500      4.93500      1.64500         0.349486     -0.403770      0.000000
 -----------------------------------------------------------------------------------
    total drift:                                0.000007      0.000029      0.000000


--------------------------------------------------------------------------------------------------------



  FREE ENERGIE OF THE ION-ELECTRON SYSTEM (eV)
  ---------------------------------------------------
  free  energy   TOTEN  =      -185.22239454 eV

  energy  without entropy=     -185.22116190  energy(sigma->0) =     -185.22177822
 


--------------------------------------------------------------------------------------------------------


    POTLOK:  cpu time      0.0060: real time      0.0061


--------------------------------------------------------------------------------------------------------


     LOOP+:  cpu time     55.4584: real time     56.0045
    4ORBIT:  cpu time      0.0000: real time      0.0000

 total amount of memory used by VASP MPI-rank0    42195. kBytes
=======================================================================

   base      :      30000. kBytes
   nonl-proj :       5271. kBytes
   fftplans  :        456. kBytes
   grid      :        919. kBytes
   one-center:         31. kBytes
   wavefun   :       5518. kBytes
 
  
  
 General timing and accounting informations for this job:
 ========================================================
  
                  Total CPU time used (sec):       58.136
                            User time (sec):       57.336
                          System time (sec):        0.799
                         Elapsed time (sec):       59.937
  
                   Maximum memory used (kb):       83860.
                   Average memory used (kb):          N/A
  
                          Minor page faults:        10652
                          Major page faults:            0
                 Voluntary context switches:          195
