 vasp.6.3.1 04May22 (build Jul 26 2022 04:02:40) complex                        
  
 executed on             LinuxIFC date 2023.11.30  03:30:37
 running on   48 total cores
 distrk:  each k-point on   48 cores,    1 groups
 distr:  one band on NCORE=  12 cores,    4 groups


--------------------------------------------------------------------------------------------------------


 INCAR:
   ISTART = 0
   NWRITE = 2
   PREC = Accurate
   ENCUT = 250
   GGA = PE
   NSW = 0
   ISIF = 2
   ISYM = 2
   NBLOCK = 1
   KBLOCK = 1
   IBRION = -1
   NELM = 80
   EDIFF = 1E-08
   EDIFFG = -0.01
   ALGO = Normal
   LDIAG = .TRUE.
   LREAL = .FALSE.
   ISMEAR = 0
   SIGMA = 0.02
   ICHARG = 2
   LPLANE = .TRUE.
   NPAR = 4
   LSCALU = .FALSE.
   NSIM = 4
   LWAVE = .FALSE.
   LCHARG = .FALSE.
   ICORELEVEL = 1

 POTCAR:    PAW_PBE Nb_sv 25May2007               
 POTCAR:    PAW_PBE Mo_sv 02Feb2006               
 POTCAR:    PAW_PBE Ta_pv 07Sep2000               
 POTCAR:    PAW_PBE W_sv 04Sep2015                
 POTCAR:    PAW_PBE Nb_sv 25May2007               
   SHA256 =  0e8fc07c9fcd1164cf2ade22d0399fd28f85e91cd773dfa6cf24839a48c95e24 Nb_sv/POTCAR          
   COPYR  = (c) Copyright 25May2007 Georg Kresse                                                    
   COPYR  = This file is part of the software VASP. Any use, copying, and all other rights are regul
   COPYR  = If you do not have a valid VASP license, you may not use, copy or distribute this file. 
   VRHFIN =Nb: 4p5s4d                                                                               
   LEXCH  = PE                                                                                      
   EATOM  =  1555.1913 eV,  114.3033 Ry                                                             
                                                                                                    
   TITEL  = PAW_PBE Nb_sv 25May2007                                                                 
   LULTRA =        F    use ultrasoft PP ?                                                          
   IUNSCR =        1    unscreen: 0-lin 1-nonlin 2-no                                               
   RPACOR =    1.800    partial core radius                                                         
   POMASS =   92.910; ZVAL   =   13.000    mass and valenz                                          
   RCORE  =    2.400    outmost cutoff radius                                                       
   RWIGS  =    2.400; RWIGS  =    1.270    wigner-seitz radius (au A)                               
   ENMAX  =  293.235; ENMIN  =  219.927 eV                                                          
   ICORE  =        3    local potential                                                             
   LCOR   =        T    correct aug charges                                                         
   LPAW   =        T    paw PP                                                                      
   EAUG   =  455.659                                                                                
   DEXC   =    0.000                                                                                
   RMAX   =    2.456    core radius for proj-oper                                                   
   RAUG   =    1.300    factor for augmentation sphere                                              
   RDEP   =    2.451    radius for radial grids                                                     
   RDEPT  =    1.956    core radius for aug-charge                                                  
                                                                                                    
   Atomic configuration                                                                             
   11 entries                                                                                       
     n  l   j            E        occ.                                                              
     1  0  0.50    -18805.2457   2.0000                                                             
     2  0  0.50     -2630.2869   2.0000                                                             
     2  1  1.50     -2348.4046   6.0000                                                             
     3  0  0.50      -438.8757   2.0000                                                             
     3  1  1.50      -346.7588   6.0000                                                             
     3  2  2.50      -196.2560  10.0000                                                             
     4  0  0.50       -58.3859   2.0000                                                             
     5  0  0.50        -3.9816   1.0000                                                             
     4  1  1.50       -34.5141   6.0000                                                             
     4  2  2.50        -3.0408   4.0000                                                             
     4  3  2.50        -1.3606   0.0000                                                             
   Description                                                                                      
     l       E           TYP  RCUT    TYP  RCUT                                                     
     0    -58.3859094     23  2.200                                                                 
     0     -3.9816262     23  2.200                                                                 
     1    -34.5140738     23  2.200                                                                 
     1     13.6058260     23  2.200                                                                 
     2     -3.0408010     23  2.200                                                                 
     2     -0.1283038     23  2.200                                                                 
     3     -1.3605826     23  2.400                                                                 
  local pseudopotential read in
  partial core-charges read in
  partial kinetic energy density read in
  atomic valenz-charges read in
  non local Contribution for L=           0  read in
    real space projection operators read in
  non local Contribution for L=           0  read in
    real space projection operators read in
  non local Contribution for L=           1  read in
    real space projection operators read in
  non local Contribution for L=           1  read in
    real space projection operators read in
  non local Contribution for L=           2  read in
    real space projection operators read in
  non local Contribution for L=           2  read in
    real space projection operators read in
    PAW grid and wavefunctions read in
 
   number of l-projection  operators is LMAX  =           6
   number of lm-projection operators is LMMAX =          18
 
 POTCAR:    PAW_PBE Mo_sv 02Feb2006               
   SHA256 =  2731df97e41766cc617548c5a8267718fdef1f509ac6bafa01e745abea2bdfaa Mo_sv/POTCAR          
   COPYR  = (c) Copyright 02Feb2006 Georg Kresse                                                    
   COPYR  = This file is part of the software VASP. Any use, copying, and all other rights are regul
   COPYR  = If you do not have a valid VASP license, you may not use, copy or distribute this file. 
   VRHFIN =Mo: 4p5s4d                                                                               
   LEXCH  = PE                                                                                      
   EATOM  =  1862.2866 eV,  136.8742 Ry                                                             
                                                                                                    
   TITEL  = PAW_PBE Mo_sv 02Feb2006                                                                 
   LULTRA =        F    use ultrasoft PP ?                                                          
   IUNSCR =        1    unscreen: 0-lin 1-nonlin 2-no                                               
   RPACOR =    2.200    partial core radius                                                         
   POMASS =   95.940; ZVAL   =   14.000    mass and valenz                                          
   RCORE  =    2.500    outmost cutoff radius                                                       
   RWIGS  =    2.750; RWIGS  =    1.455    wigner-seitz radius (au A)                               
   ENMAX  =  242.676; ENMIN  =  182.007 eV                                                          
   ICORE  =        3    local potential                                                             
   LCOR   =        T    correct aug charges                                                         
   LPAW   =        T    paw PP                                                                      
   EAUG   =  446.014                                                                                
   DEXC   =    0.000                                                                                
   RMAX   =    2.563    core radius for proj-oper                                                   
   RAUG   =    1.300    factor for augmentation sphere                                              
   RDEP   =    2.641    radius for radial grids                                                     
   RDEPT  =    2.031    core radius for aug-charge                                                  
                                                                                                    
   Atomic configuration                                                                             
   11 entries                                                                                       
     n  l   j            E        occ.                                                              
     1  0  0.50    -19819.0341   2.0000                                                             
     2  0  0.50     -2799.0127   2.0000                                                             
     2  1  1.50     -2502.0276   6.0000                                                             
     3  0  0.50      -476.4449   2.0000                                                             
     3  1  1.50      -379.1496   6.0000                                                             
     3  2  2.50      -220.9367  10.0000                                                             
     4  0  0.50       -64.3378   2.0000                                                             
     5  0  0.50        -4.0862   1.0000                                                             
     4  1  1.50       -38.4773   6.0000                                                             
     4  2  2.50        -3.7535   5.0000                                                             
     4  3  2.50        -1.3606   0.0000                                                             
   Description                                                                                      
     l       E           TYP  RCUT    TYP  RCUT                                                     
     0    -64.3377829     23  2.100                                                                 
     0     -4.0861640     23  2.400                                                                 
     1    -38.4772993     23  2.100                                                                 
     1     13.6058260     23  2.100                                                                 
     2     -3.7534941     23  2.400                                                                 
     2     -5.1140767     23  2.400                                                                 
     3     -4.0817478     23  2.500                                                                 
  local pseudopotential read in
  partial core-charges read in
  partial kinetic energy density read in
  atomic valenz-charges read in
  non local Contribution for L=           0  read in
    real space projection operators read in
  non local Contribution for L=           0  read in
    real space projection operators read in
  non local Contribution for L=           1  read in
    real space projection operators read in
  non local Contribution for L=           1  read in
    real space projection operators read in
  non local Contribution for L=           2  read in
    real space projection operators read in
  non local Contribution for L=           2  read in
    real space projection operators read in
    PAW grid and wavefunctions read in
 
   number of l-projection  operators is LMAX  =           6
   number of lm-projection operators is LMMAX =          18
 
 POTCAR:    PAW_PBE Ta_pv 07Sep2000               
   SHA256 =  00d0a14a36c127416459414afb8617d9754996fffa60a2465888e660b20a452f Ta_pv/POTCAR          
   COPYR  = (c) Copyright 07Sep2000 Georg Kresse                                                    
   COPYR  = This file is part of the software VASP. Any use, copying, and all other rights are regul
   COPYR  = If you do not have a valid VASP license, you may not use, copy or distribute this file. 
   VRHFIN =Ta:  5p6s5d                                                                              
   LEXCH  = PE                                                                                      
   EATOM  =  1047.1984 eV,   76.9669 Ry                                                             
                                                                                                    
   TITEL  = PAW_PBE Ta_pv 07Sep2000                                                                 
   LULTRA =        F    use ultrasoft PP ?                                                          
   IUNSCR =        1    unscreen: 0-lin 1-nonlin 2-no                                               
   RPACOR =    2.330    partial core radius                                                         
   POMASS =  180.948; ZVAL   =   11.000    mass and valenz                                          
   RCORE  =    2.500    outmost cutoff radius                                                       
   RWIGS  =    2.840; RWIGS  =    1.503    wigner-seitz radius (au A)                               
   ENMAX  =  223.667; ENMIN  =  167.750 eV                                                          
   RCLOC  =    2.205    cutoff for local pot                                                        
   LCOR   =        T    correct aug charges                                                         
   LPAW   =        T    paw PP                                                                      
   EAUG   =  377.421                                                                                
   DEXC   =    0.000                                                                                
   RMAX   =    2.551    core radius for proj-oper                                                   
   RAUG   =    1.300    factor for augmentation sphere                                              
   RDEP   =    2.526    radius for radial grids                                                     
   RDEPT  =    2.132    core radius for aug-charge                                                  
                                                                                                    
   Atomic configuration                                                                             
   15 entries                                                                                       
     n  l   j            E        occ.                                                              
     1  0  0.50    -67341.2801   2.0000                                                             
     2  0  0.50    -11566.9369   2.0000                                                             
     2  1  1.50    -10134.1175   6.0000                                                             
     3  0  0.50     -2648.5614   2.0000                                                             
     3  1  1.50     -2222.6006   6.0000                                                             
     3  2  2.50     -1726.3114  10.0000                                                             
     4  0  0.50      -538.6957   2.0000                                                             
     4  1  1.50      -399.0125   6.0000                                                             
     4  2  2.50      -220.3955  10.0000                                                             
     4  3  3.50       -23.0371  14.0000                                                             
     5  0  0.50       -71.2900   2.0000                                                             
     5  1  1.50       -37.8224   6.0000                                                             
     5  2  2.50        -2.6455   4.0000                                                             
     6  0  0.50        -4.9623   1.0000                                                             
     5  3  2.50        -1.3606   0.0000                                                             
   Description                                                                                      
     l       E           TYP  RCUT    TYP  RCUT                                                     
     1    -37.8224449     23  2.500                                                                 
     1      1.3605826     23  2.500                                                                 
     2     -2.6454718     23  2.500                                                                 
     2     -0.6258570     23  2.500                                                                 
     0     -4.9622674     23  2.500                                                                 
     0      4.7531427     23  2.500                                                                 
  local pseudopotential read in
  partial core-charges read in
  partial kinetic energy density read in
  atomic valenz-charges read in
  non local Contribution for L=           1  read in
    real space projection operators read in
  non local Contribution for L=           1  read in
    real space projection operators read in
  non local Contribution for L=           2  read in
    real space projection operators read in
  non local Contribution for L=           2  read in
    real space projection operators read in
  non local Contribution for L=           0  read in
    real space projection operators read in
  non local Contribution for L=           0  read in
    real space projection operators read in
    PAW grid and wavefunctions read in
 
   number of l-projection  operators is LMAX  =           6
   number of lm-projection operators is LMMAX =          18
 
 POTCAR:    PAW_PBE W_sv 04Sep2015                
   SHA256 =  931c2d770f65867ef30f3db3421922900fc0890ebac5c3e12f63b6a2064023d7 W_sv/POTCAR           
   COPYR  = (c) Copyright 04Sep2015 Georg Kresse                                                    
   COPYR  = This file is part of the software VASP. Any use, copying, and all other rights are regul
   COPYR  = If you do not have a valid VASP license, you may not use, copy or distribute this file. 
   VRHFIN =W : 5p6s5d                                                                               
   LEXCH  = PE                                                                                      
   EATOM  =  1865.5791 eV,  137.1162 Ry                                                             
                                                                                                    
   TITEL  = PAW_PBE W_sv 04Sep2015                                                                  
   LULTRA =        F    use ultrasoft PP ?                                                          
   IUNSCR =        1    unscreen: 0-lin 1-nonlin 2-no                                               
   RPACOR =    2.330    partial core radius                                                         
   POMASS =  183.850; ZVAL   =   14.000    mass and valenz                                          
   RCORE  =    2.500    outmost cutoff radius                                                       
   RWIGS  =    2.750; RWIGS  =    1.455    wigner-seitz radius (au A)                               
   ENMAX  =  223.057; ENMIN  =  167.293 eV                                                          
   ICORE  =        3    local potential                                                             
   LCOR   =        T    correct aug charges                                                         
   LPAW   =        T    paw PP                                                                      
   EAUG   =  373.438                                                                                
   DEXC   =    0.000                                                                                
   RMAX   =    2.565    core radius for proj-oper                                                   
   RAUG   =    1.300    factor for augmentation sphere                                              
   RDEP   =    2.539    radius for radial grids                                                     
   RDEPT  =    2.126    core radius for aug-charge                                                  
                                                                                                    
   Atomic configuration                                                                             
   15 entries                                                                                       
     n  l   j            E        occ.                                                              
     1  0  0.50    -69465.5834   2.0000                                                             
     2  0  0.50    -11986.2640   2.0000                                                             
     2  1  1.50    -10479.8613   6.0000                                                             
     3  0  0.50     -2759.0756   2.0000                                                             
     3  1  1.50     -2313.1855   6.0000                                                             
     3  2  2.50     -1801.1183  10.0000                                                             
     4  0  0.50      -567.6789   2.0000                                                             
     4  1  1.50      -421.4692   6.0000                                                             
     4  2  2.50      -236.3471  10.0000                                                             
     4  3  3.50       -31.2665  14.0000                                                             
     5  0  0.50       -77.1084   2.0000                                                             
     6  0  0.50        -5.1438   1.0000                                                             
     5  1  1.50       -41.3856   6.0000                                                             
     5  2  2.50        -3.3185   5.0000                                                             
     5  3  2.50        -1.3606   0.0000                                                             
   Description                                                                                      
     l       E           TYP  RCUT    TYP  RCUT                                                     
     0    -77.1084470     23  2.100                                                                 
     0     -5.1437956     23  2.300                                                                 
     1    -41.3855615     23  2.500                                                                 
     1     -2.7211652     23  2.500                                                                 
     2     -3.3185025     23  2.500                                                                 
     2     -1.5965151     23  2.500                                                                 
     3     -1.3605826     23  2.500                                                                 
  local pseudopotential read in
  partial core-charges read in
  partial kinetic energy density read in
  kinetic energy density of atom read in
  atomic valenz-charges read in
  non local Contribution for L=           0  read in
    real space projection operators read in
  non local Contribution for L=           0  read in
    real space projection operators read in
  non local Contribution for L=           1  read in
    real space projection operators read in
  non local Contribution for L=           1  read in
    real space projection operators read in
  non local Contribution for L=           2  read in
    real space projection operators read in
  non local Contribution for L=           2  read in
    real space projection operators read in
    PAW grid and wavefunctions read in
 
   number of l-projection  operators is LMAX  =           6
   number of lm-projection operators is LMMAX =          18
 
  PAW_PBE Nb_sv 25May2007               :
 energy of atom  1       EATOM=-1555.1913
 kinetic energy error for atom=    0.2155 (will be added to EATOM!!)
  PAW_PBE Mo_sv 02Feb2006               :
 energy of atom  2       EATOM=-1862.2866
 kinetic energy error for atom=    0.1102 (will be added to EATOM!!)
  PAW_PBE Ta_pv 07Sep2000               :
 energy of atom  3       EATOM=-1047.1984
 kinetic energy error for atom=    0.0394 (will be added to EATOM!!)
  PAW_PBE W_sv 04Sep2015                :
 energy of atom  4       EATOM=-1865.5791
 kinetic energy error for atom=    0.0589 (will be added to EATOM!!)
 
 
 POSCAR: Nb-Mo-Ta-W alloy
  positions in direct lattice
  No initial velocities read in
 exchange correlation table for  LEXCH =        8
   RHO(1)=    0.500       N(1)  =     2000
   RHO(2)=  100.500       N(2)  =     4000
 


--------------------------------------------------------------------------------------------------------


 ion  position               nearest neighbor table
   1  0.750  0.250  0.750-   2 2.85   3 2.85   5 2.85   7 2.85   8 2.85  11 2.85  12 2.85  13 2.85

   2  0.000  0.500  0.000-   1 2.85   4 2.85   6 2.85   9 2.85  10 2.85  14 2.85  15 2.85  16 2.85
                            11 3.29  11 3.29
   3  0.000  0.000  0.000-   1 2.85   4 2.85   6 2.85   9 2.85  10 2.85  14 2.85  15 2.85  16 2.85
                            12 3.29   5 3.29   5 3.29  12 3.29
   4  0.750  0.250  0.250-   2 2.85   3 2.85   5 2.85   7 2.85   8 2.85  11 2.85  12 2.85  13 2.85
                            10 3.29   6 3.29   6 3.29  10 3.29
   5  0.000  0.000  0.500-   1 2.85   4 2.85   6 2.85   9 2.85  10 2.85  14 2.85  15 2.85  16 2.85
                             3 3.29   8 3.29  13 3.29   3 3.29   8 3.29  13 3.29
   6  0.750  0.750  0.250-   2 2.85   3 2.85   5 2.85   7 2.85   8 2.85  11 2.85  12 2.85  13 2.85
                             9 3.29   4 3.29  14 3.29   9 3.29   4 3.29  14 3.29
   7  0.500  0.500  0.500-   1 2.85   4 2.85   6 2.85   9 2.85  10 2.85  14 2.85  15 2.85  16 2.85
                             8 3.29  11 3.29  13 3.29  11 3.29  13 3.29   8 3.29
   8  0.000  0.500  0.500-   1 2.85   4 2.85   6 2.85   9 2.85  10 2.85  14 2.85  15 2.85  16 2.85
                             7 3.29   5 3.29   5 3.29   7 3.29
   9  0.750  0.750  0.750-   2 2.85   3 2.85   5 2.85   7 2.85   8 2.85  11 2.85  12 2.85  13 2.85
                             6 3.29  16 3.29   6 3.29  16 3.29
  10  0.250  0.250  0.250-   2 2.85   3 2.85   5 2.85   7 2.85   8 2.85  11 2.85  12 2.85  13 2.85
                             4 3.29  14 3.29  15 3.29  15 3.29  14 3.29   4 3.29
  11  0.500  0.500  0.000-   1 2.85   4 2.85   6 2.85   9 2.85  10 2.85  14 2.85  15 2.85  16 2.85
                             2 3.29   7 3.29  12 3.29   7 3.29  12 3.29   2 3.29
  12  0.500  0.000  0.000-   1 2.85   4 2.85   6 2.85   9 2.85  10 2.85  14 2.85  15 2.85  16 2.85
                             3 3.29  11 3.29  13 3.29  13 3.29  11 3.29   3 3.29
  13  0.500  0.000  0.500-   1 2.85   4 2.85   6 2.85   9 2.85  10 2.85  14 2.85  15 2.85  16 2.85
                             5 3.29   7 3.29  12 3.29  12 3.29   7 3.29   5 3.29
  14  0.250  0.750  0.250-   2 2.85   3 2.85   5 2.85   7 2.85   8 2.85  11 2.85  12 2.85  13 2.85
                            10 3.29   6 3.29  16 3.29  16 3.29  10 3.29   6 3.29
  15  0.250  0.250  0.750-   2 2.85   3 2.85   5 2.85   7 2.85   8 2.85  11 2.85  12 2.85  13 2.85
                            10 3.29  16 3.29  10 3.29  16 3.29
  16  0.250  0.750  0.750-   2 2.85   3 2.85   5 2.85   7 2.85   8 2.85  11 2.85  12 2.85  13 2.85
                             9 3.29  14 3.29  15 3.29  14 3.29  15 3.29   9 3.29
 
  LATTYP: Found a simple cubic cell.
 ALAT       =     6.5800000000
  
  Lattice vectors:
  
 A1 = (   6.5800000000,   0.0000000000,   0.0000000000)
 A2 = (   0.0000000000,   6.5800000000,   0.0000000000)
 A3 = (   0.0000000000,   0.0000000000,   6.5800000000)


Analysis of symmetry for initial positions (statically):
=====================================================================
 Subroutine PRICEL returns:
 Original cell was already a primitive cell.
 

 Routine SETGRP: Setting up the symmetry group for a 
 simple cubic supercell.


 Subroutine GETGRP returns: Found  1 space group operations
 (whereof  1 operations were pure point group operations)
 out of a pool of 48 trial point group operations.


The static configuration has the point symmetry C_1 .


Analysis of symmetry for dynamics (positions and initial velocities):
=====================================================================
 Subroutine PRICEL returns:
 Original cell was already a primitive cell.
 

 Routine SETGRP: Setting up the symmetry group for a 
 simple cubic supercell.


 Subroutine GETGRP returns: Found  1 space group operations
 (whereof  1 operations were pure point group operations)
 out of a pool of 48 trial point group operations.


The dynamic configuration has the point symmetry C_1 .


 Subroutine INISYM returns: Found  1 space group operations
 (whereof  1 operations are pure point group operations),
 and found     1 'primitive' translations


----------------------------------------------------------------------------------------

                                     Primitive cell                                     

  volume of cell :     284.8903

  direct lattice vectors                    reciprocal lattice vectors
     6.580000000  0.000000000  0.000000000     0.151975684  0.000000000  0.000000000
     0.000000000  6.580000000  0.000000000     0.000000000  0.151975684  0.000000000
     0.000000000  0.000000000  6.580000000     0.000000000  0.000000000  0.151975684

  length of vectors
     6.580000000  6.580000000  6.580000000     0.151975684  0.151975684  0.151975684

  position of ions in fractional coordinates (direct lattice)
     0.750000000  0.250000000  0.750000000
     0.000000000  0.500000000  0.000000000
     0.000000000  0.000000000  0.000000000
     0.750000000  0.250000000  0.250000000
     0.000000000  0.000000000  0.500000000
     0.750000000  0.750000000  0.250000000
     0.500000000  0.500000000  0.500000000
     0.000000000  0.500000000  0.500000000
     0.750000000  0.750000000  0.750000000
     0.250000000  0.250000000  0.250000000
     0.500000000  0.500000000  0.000000000
     0.500000000  0.000000000  0.000000000
     0.500000000  0.000000000  0.500000000
     0.250000000  0.750000000  0.250000000
     0.250000000  0.250000000  0.750000000
     0.250000000  0.750000000  0.750000000

  ion indices of the primitive-cell ions
   primitive index   ion index
                 1           1
                 2           2
                 3           3
                 4           4
                 5           5
                 6           6
                 7           7
                 8           8
                 9           9
                10          10
                11          11
                12          12
                13          13
                14          14
                15          15
                16          16

----------------------------------------------------------------------------------------

 
 
 KPOINTS: K-Spacing Value to Generate K-Mesh: 0.03

Automatic generation of k-mesh.
 Grid dimensions read from file:
 generate k-points for:    5    5    5

 Generating k-lattice:

  Cartesian coordinates                     Fractional coordinates (reciprocal lattice)
     0.030395137  0.000000000  0.000000000     0.200000000  0.000000000  0.000000000
     0.000000000  0.030395137  0.000000000     0.000000000  0.200000000  0.000000000
     0.000000000  0.000000000  0.030395137     0.000000000  0.000000000  0.200000000

  Length of vectors
     0.030395137  0.030395137  0.030395137

  Shift w.r.t. Gamma in fractional coordinates (k-lattice)
     0.000000000  0.000000000  0.000000000

 
 Subroutine IBZKPT returns following result:
 ===========================================
 
 Found     63 irreducible k-points:
 
 Following reciprocal coordinates:
            Coordinates               Weight
  0.000000  0.000000  0.000000      1.000000
  0.200000  0.000000  0.000000      2.000000
  0.000000  0.200000  0.000000      2.000000
  0.000000  0.000000  0.200000      2.000000
  0.400000  0.000000  0.000000      2.000000
  0.000000  0.400000  0.000000      2.000000
  0.000000  0.000000  0.400000      2.000000
  0.200000  0.200000  0.000000      2.000000
  0.000000  0.200000  0.200000      2.000000
  0.200000  0.000000  0.200000      2.000000
 -0.200000  0.200000  0.000000      2.000000
 -0.200000  0.000000  0.200000      2.000000
  0.000000 -0.200000  0.200000      2.000000
  0.400000  0.200000  0.000000      2.000000
  0.000000  0.400000  0.200000      2.000000
  0.200000  0.000000  0.400000      2.000000
 -0.200000  0.400000  0.000000      2.000000
 -0.400000  0.000000  0.200000      2.000000
  0.000000  0.200000  0.400000      2.000000
  0.000000 -0.400000  0.200000      2.000000
 -0.200000  0.000000  0.400000      2.000000
  0.400000  0.000000  0.200000      2.000000
  0.000000 -0.200000  0.400000      2.000000
  0.400000 -0.200000  0.000000      2.000000
  0.200000  0.400000  0.000000      2.000000
  0.400000  0.400000  0.000000      2.000000
  0.000000  0.400000  0.400000      2.000000
  0.400000  0.000000  0.400000      2.000000
 -0.400000  0.400000  0.000000      2.000000
 -0.400000  0.000000  0.400000      2.000000
  0.000000 -0.400000  0.400000      2.000000
  0.200000  0.200000  0.200000      2.000000
 -0.200000  0.200000  0.200000      2.000000
 -0.200000 -0.200000  0.200000      2.000000
  0.200000 -0.200000  0.200000      2.000000
  0.400000  0.200000  0.200000      2.000000
  0.200000  0.400000  0.200000      2.000000
  0.200000  0.200000  0.400000      2.000000
 -0.200000  0.400000  0.200000      2.000000
 -0.400000  0.200000  0.200000      2.000000
 -0.200000  0.200000  0.400000      2.000000
 -0.400000 -0.200000  0.200000      2.000000
 -0.200000 -0.400000  0.200000      2.000000
 -0.200000 -0.200000  0.400000      2.000000
  0.200000 -0.400000  0.200000      2.000000
  0.400000 -0.200000  0.200000      2.000000
  0.200000 -0.200000  0.400000      2.000000
  0.400000  0.400000  0.200000      2.000000
  0.200000  0.400000  0.400000      2.000000
  0.400000  0.200000  0.400000      2.000000
 -0.400000  0.400000  0.200000      2.000000
 -0.400000  0.200000  0.400000      2.000000
 -0.200000  0.400000  0.400000      2.000000
 -0.400000 -0.400000  0.200000      2.000000
 -0.200000 -0.400000  0.400000      2.000000
 -0.400000 -0.200000  0.400000      2.000000
  0.400000 -0.400000  0.200000      2.000000
  0.400000 -0.200000  0.400000      2.000000
  0.200000 -0.400000  0.400000      2.000000
  0.400000  0.400000  0.400000      2.000000
 -0.400000  0.400000  0.400000      2.000000
 -0.400000 -0.400000  0.400000      2.000000
  0.400000 -0.400000  0.400000      2.000000
 
 Following cartesian coordinates:
            Coordinates               Weight
  0.000000  0.000000  0.000000      1.000000
  0.030395  0.000000  0.000000      2.000000
  0.000000  0.030395  0.000000      2.000000
  0.000000  0.000000  0.030395      2.000000
  0.060790  0.000000  0.000000      2.000000
  0.000000  0.060790  0.000000      2.000000
  0.000000  0.000000  0.060790      2.000000
  0.030395  0.030395  0.000000      2.000000
  0.000000  0.030395  0.030395      2.000000
  0.030395  0.000000  0.030395      2.000000
 -0.030395  0.030395  0.000000      2.000000
 -0.030395  0.000000  0.030395      2.000000
  0.000000 -0.030395  0.030395      2.000000
  0.060790  0.030395  0.000000      2.000000
  0.000000  0.060790  0.030395      2.000000
  0.030395  0.000000  0.060790      2.000000
 -0.030395  0.060790  0.000000      2.000000
 -0.060790  0.000000  0.030395      2.000000
  0.000000  0.030395  0.060790      2.000000
  0.000000 -0.060790  0.030395      2.000000
 -0.030395  0.000000  0.060790      2.000000
  0.060790  0.000000  0.030395      2.000000
  0.000000 -0.030395  0.060790      2.000000
  0.060790 -0.030395  0.000000      2.000000
  0.030395  0.060790  0.000000      2.000000
  0.060790  0.060790  0.000000      2.000000
  0.000000  0.060790  0.060790      2.000000
  0.060790  0.000000  0.060790      2.000000
 -0.060790  0.060790  0.000000      2.000000
 -0.060790  0.000000  0.060790      2.000000
  0.000000 -0.060790  0.060790      2.000000
  0.030395  0.030395  0.030395      2.000000
 -0.030395  0.030395  0.030395      2.000000
 -0.030395 -0.030395  0.030395      2.000000
  0.030395 -0.030395  0.030395      2.000000
  0.060790  0.030395  0.030395      2.000000
  0.030395  0.060790  0.030395      2.000000
  0.030395  0.030395  0.060790      2.000000
 -0.030395  0.060790  0.030395      2.000000
 -0.060790  0.030395  0.030395      2.000000
 -0.030395  0.030395  0.060790      2.000000
 -0.060790 -0.030395  0.030395      2.000000
 -0.030395 -0.060790  0.030395      2.000000
 -0.030395 -0.030395  0.060790      2.000000
  0.030395 -0.060790  0.030395      2.000000
  0.060790 -0.030395  0.030395      2.000000
  0.030395 -0.030395  0.060790      2.000000
  0.060790  0.060790  0.030395      2.000000
  0.030395  0.060790  0.060790      2.000000
  0.060790  0.030395  0.060790      2.000000
 -0.060790  0.060790  0.030395      2.000000
 -0.060790  0.030395  0.060790      2.000000
 -0.030395  0.060790  0.060790      2.000000
 -0.060790 -0.060790  0.030395      2.000000
 -0.030395 -0.060790  0.060790      2.000000
 -0.060790 -0.030395  0.060790      2.000000
  0.060790 -0.060790  0.030395      2.000000
  0.060790 -0.030395  0.060790      2.000000
  0.030395 -0.060790  0.060790      2.000000
  0.060790  0.060790  0.060790      2.000000
 -0.060790  0.060790  0.060790      2.000000
 -0.060790 -0.060790  0.060790      2.000000
  0.060790 -0.060790  0.060790      2.000000
 


--------------------------------------------------------------------------------------------------------




 Dimension of arrays:
   k-points           NKPTS =     63   k-points in BZ     NKDIM =     63   number of bands    NBANDS=    128
   number of dos      NEDOS =    301   number of ions     NIONS =     16
   non local maximal  LDIM  =      6   non local SUM 2l+1 LMDIM =     18
   total plane-waves  NPLWV =  46656
   max r-space proj   IRMAX =      1   max aug-charges    IRDMAX=   9546
   dimension x,y,z NGX =    36 NGY =   36 NGZ =   36
   dimension x,y,z NGXF=    72 NGYF=   72 NGZF=   72
   support grid    NGXF=    72 NGYF=   72 NGZF=   72
   ions per type =               2   7   3   4
   NGX,Y,Z   is equivalent  to a cutoff of   9.10,  9.10,  9.10 a.u.
   NGXF,Y,Z  is equivalent  to a cutoff of  18.19, 18.19, 18.19 a.u.

 SYSTEM =  unknown system                          
 POSCAR =  Nb-Mo-Ta-W alloy                        

 Startparameter for this run:
   NWRITE =      2    write-flag & timer
   PREC   = accura    normal or accurate (medium, high low for compatibility)
   ISTART =      0    job   : 0-new  1-cont  2-samecut
   ICHARG =      2    charge: 1-file 2-atom 10-const
   ISPIN  =      1    spin polarized calculation?
   LNONCOLLINEAR =      F non collinear calculations
   LSORBIT =      F    spin-orbit coupling
   INIWAV =      1    electr: 0-lowe 1-rand  2-diag
   LASPH  =      F    aspherical Exc in radial PAW
 Electronic Relaxation 1
   ENCUT  =  250.0 eV  18.37 Ry    4.29 a.u.   8.48  8.48  8.48*2*pi/ulx,y,z
   ENINI  =  250.0     initial cutoff
   ENAUG  =  455.7 eV  augmentation charge cutoff
   NELM   =     80;   NELMIN=  2; NELMDL= -5     # of ELM steps 
   EDIFF  = 0.1E-07   stopping-criterion for ELM
   LREAL  =      F    real-space projection
   NLSPLINE    = F    spline interpolate recip. space projectors
   LCOMPAT=      F    compatible to vasp.4.4
   GGA_COMPAT  = T    GGA compatible to vasp.4.4-vasp.4.6
   LMAXPAW     = -100 max onsite density
   LMAXMIX     =    2 max onsite mixed and CHGCAR
   VOSKOWN=      0    Vosko Wilk Nusair interpolation
   ROPT   =    0.00000   0.00000   0.00000   0.00000
 Ionic relaxation
   EDIFFG = -.1E-01   stopping-criterion for IOM
   NSW    =      0    number of steps for IOM
   NBLOCK =      1;   KBLOCK =      1    inner block; outer block 
   IBRION =     -1    ionic relax: 0-MD 1-quasi-New 2-CG
   NFREE  =      0    steps in history (QN), initial steepest desc. (CG)
   ISIF   =      2    stress and relaxation
   IWAVPR =     10    prediction:  0-non 1-charg 2-wave 3-comb
   ISYM   =      2    0-nonsym 1-usesym 2-fastsym
   LCORR  =      T    Harris-Foulkes like correction to forces

   POTIM  = 0.5000    time-step for ionic-motion
   TEIN   =    0.0    initial temperature
   TEBEG  =    0.0;   TEEND  =   0.0 temperature during run
   SMASS  =  -3.00    Nose mass-parameter (am)
   estimated Nose-frequenzy (Omega)   =  0.10E-29 period in steps = 0.13E+47 mass=  -0.989E-27a.u.
   SCALEE = 1.0000    scale energy and forces
   NPACO  =    256;   APACO  = 10.0  distance and # of slots for P.C.
   PSTRESS=    0.0 pullay stress

  Mass of Ions in am
   POMASS =  92.91 95.94180.95183.85
  Ionic Valenz
   ZVAL   =  13.00 14.00 11.00 14.00
  Atomic Wigner-Seitz radii
   RWIGS  =  -1.00 -1.00 -1.00 -1.00
  virtual crystal weights 
   VCA    =   1.00  1.00  1.00  1.00
   NELECT =     213.0000    total number of electrons
   NUPDOWN=      -1.0000    fix difference up-down

 DOS related values:
   EMIN   =  10.00;   EMAX   =-10.00  energy-range for DOS
   EFERMI =   0.00
   ISMEAR =     0;   SIGMA  =   0.02  broadening in eV -4-tet -1-fermi 0-gaus

 Electronic relaxation 2 (details)
   IALGO  =     38    algorithm
   LDIAG  =      T    sub-space diagonalisation (order eigenvalues)
   LSUBROT=      F    optimize rotation matrix (better conditioning)
   TURBO    =      0    0=normal 1=particle mesh
   IRESTART =      0    0=no restart 2=restart with 2 vectors
   NREBOOT  =      0    no. of reboots
   NMIN     =      0    reboot dimension
   EREF     =   0.00    reference energy to select bands
   IMIX   =      4    mixing-type and parameters
     AMIX     =   0.40;   BMIX     =  1.00
     AMIX_MAG =   1.60;   BMIX_MAG =  1.00
     AMIN     =   0.10
     WC   =   100.;   INIMIX=   1;  MIXPRE=   1;  MAXMIX= -45

 Intra band minimization:
   WEIMIN = 0.0000     energy-eigenvalue tresh-hold
   EBREAK =  0.20E-10  absolut break condition
   DEPER  =   0.30     relativ break condition  

   TIME   =   0.40     timestep for ELM

  volume/ion in A,a.u.               =      17.81       120.16
  Fermi-wavevector in a.u.,A,eV,Ry     =   1.485852  2.807853 30.038335  2.207755
  Thomas-Fermi vector in A             =   2.599212
 
 Write flags
   LWAVE        =      F    write WAVECAR
   LDOWNSAMPLE  =      F    k-point downsampling of WAVECAR
   LCHARG       =      F    write CHGCAR
   LVTOT        =      F    write LOCPOT, total local potential
   LVHAR        =      F    write LOCPOT, Hartree potential only
   LELF         =      F    write electronic localiz. function (ELF)
   LORBIT       =      0    0 simple, 1 ext, 2 COOP (PROOUT), +10 PAW based schemes


 Dipole corrections
   LMONO  =      F    monopole corrections only (constant potential shift)
   LDIPOL =      F    correct potential (dipole corrections)
   IDIPOL =      0    1-x, 2-y, 3-z, 4-all directions 
   EPSILON=  1.0000000 bulk dielectric constant

 Core level calculations are selected ICORELEVEL =  1
 Exchange correlation treatment:
   GGA     =    PE    GGA type
   LEXCH   =     8    internal setting for exchange type
   LIBXC   =     F    Libxc                    
   VOSKOWN =     0    Vosko Wilk Nusair interpolation
   LHFCALC =     F    Hartree Fock is set to
   LHFONE  =     F    Hartree Fock one center treatment
   AEXX    =    0.0000 exact exchange contribution

 Linear response parameters
   LEPSILON=     F    determine dielectric tensor
   LRPA    =     F    only Hartree local field effects (RPA)
   LNABLA  =     F    use nabla operator in PAW spheres
   LVEL    =     F    velocity operator in full k-point grid
   CSHIFT  =0.1000    complex shift for real part using Kramers Kronig
   OMEGAMAX=  -1.0    maximum frequency
   DEG_THRESHOLD= 0.2000000E-02 threshold for treating states as degnerate
   RTIME   =   -0.100 relaxation time in fs
  (WPLASMAI=    0.000 imaginary part of plasma frequency in eV, 0.658/RTIME)
   DFIELD  = 0.0000000 0.0000000 0.0000000 field for delta impulse in time
 
  Optional k-point grid parameters
   LKPOINTS_OPT  =     F    use optional k-point grid
   KPOINTS_OPT_MODE=     1    mode for optional k-point grid
 
 Orbital magnetization related:
   ORBITALMAG=     F  switch on orbital magnetization
   LCHIMAG   =     F  perturbation theory with respect to B field
   DQ        =  0.001000  dq finite difference perturbation B field
   LLRAUG    =     F  two centre corrections for induced B field



--------------------------------------------------------------------------------------------------------


 Static calculation
 charge density and potential will be updated during run
 non-spin polarized calculation
 Variant of blocked Davidson
 Davidson routine will perform the subspace rotation
 perform sub-space diagonalisation
    after iterative eigenvector-optimisation
 modified Broyden-mixing scheme, WC =      100.0
 initial mixing is a Kerker type mixing with AMIX =  0.4000 and BMIX =      1.0000
 Hartree-type preconditioning will be used
 using additional bands           21
 reciprocal scheme for non local part
 use partial core corrections
 calculate Harris-corrections to forces 
   (improved forces if not selfconsistent)
 use gradient corrections 
 use of overlap-Matrix (Vanderbilt PP)
 Gauss-broadening in eV      SIGMA  =   0.02


--------------------------------------------------------------------------------------------------------


  energy-cutoff  :      250.00
  volume of cell :      284.89
      direct lattice vectors                 reciprocal lattice vectors
     6.580000000  0.000000000  0.000000000     0.151975684  0.000000000  0.000000000
     0.000000000  6.580000000  0.000000000     0.000000000  0.151975684  0.000000000
     0.000000000  0.000000000  6.580000000     0.000000000  0.000000000  0.151975684

  length of vectors
     6.580000000  6.580000000  6.580000000     0.151975684  0.151975684  0.151975684


 
 k-points in units of 2pi/SCALE and weight: K-Spacing Value to Generate K-Mesh: 0.03
   0.00000000  0.00000000  0.00000000       0.008
   0.03039514  0.00000000  0.00000000       0.016
   0.00000000  0.03039514  0.00000000       0.016
   0.00000000  0.00000000  0.03039514       0.016
   0.06079027  0.00000000  0.00000000       0.016
   0.00000000  0.06079027  0.00000000       0.016
   0.00000000  0.00000000  0.06079027       0.016
   0.03039514  0.03039514  0.00000000       0.016
   0.00000000  0.03039514  0.03039514       0.016
   0.03039514  0.00000000  0.03039514       0.016
  -0.03039514  0.03039514  0.00000000       0.016
  -0.03039514  0.00000000  0.03039514       0.016
   0.00000000 -0.03039514  0.03039514       0.016
   0.06079027  0.03039514  0.00000000       0.016
   0.00000000  0.06079027  0.03039514       0.016
   0.03039514  0.00000000  0.06079027       0.016
  -0.03039514  0.06079027  0.00000000       0.016
  -0.06079027  0.00000000  0.03039514       0.016
   0.00000000  0.03039514  0.06079027       0.016
   0.00000000 -0.06079027  0.03039514       0.016
  -0.03039514  0.00000000  0.06079027       0.016
   0.06079027  0.00000000  0.03039514       0.016
   0.00000000 -0.03039514  0.06079027       0.016
   0.06079027 -0.03039514  0.00000000       0.016
   0.03039514  0.06079027  0.00000000       0.016
   0.06079027  0.06079027  0.00000000       0.016
   0.00000000  0.06079027  0.06079027       0.016
   0.06079027  0.00000000  0.06079027       0.016
  -0.06079027  0.06079027  0.00000000       0.016
  -0.06079027  0.00000000  0.06079027       0.016
   0.00000000 -0.06079027  0.06079027       0.016
   0.03039514  0.03039514  0.03039514       0.016
  -0.03039514  0.03039514  0.03039514       0.016
  -0.03039514 -0.03039514  0.03039514       0.016
   0.03039514 -0.03039514  0.03039514       0.016
   0.06079027  0.03039514  0.03039514       0.016
   0.03039514  0.06079027  0.03039514       0.016
   0.03039514  0.03039514  0.06079027       0.016
  -0.03039514  0.06079027  0.03039514       0.016
  -0.06079027  0.03039514  0.03039514       0.016
  -0.03039514  0.03039514  0.06079027       0.016
  -0.06079027 -0.03039514  0.03039514       0.016
  -0.03039514 -0.06079027  0.03039514       0.016
  -0.03039514 -0.03039514  0.06079027       0.016
   0.03039514 -0.06079027  0.03039514       0.016
   0.06079027 -0.03039514  0.03039514       0.016
   0.03039514 -0.03039514  0.06079027       0.016
   0.06079027  0.06079027  0.03039514       0.016
   0.03039514  0.06079027  0.06079027       0.016
   0.06079027  0.03039514  0.06079027       0.016
  -0.06079027  0.06079027  0.03039514       0.016
  -0.06079027  0.03039514  0.06079027       0.016
  -0.03039514  0.06079027  0.06079027       0.016
  -0.06079027 -0.06079027  0.03039514       0.016
  -0.03039514 -0.06079027  0.06079027       0.016
  -0.06079027 -0.03039514  0.06079027       0.016
   0.06079027 -0.06079027  0.03039514       0.016
   0.06079027 -0.03039514  0.06079027       0.016
   0.03039514 -0.06079027  0.06079027       0.016
   0.06079027  0.06079027  0.06079027       0.016
  -0.06079027  0.06079027  0.06079027       0.016
  -0.06079027 -0.06079027  0.06079027       0.016
   0.06079027 -0.06079027  0.06079027       0.016
 
 k-points in reciprocal lattice and weights: K-Spacing Value to Generate K-Mesh: 0.03
   0.00000000  0.00000000  0.00000000       0.008
   0.20000000  0.00000000  0.00000000       0.016
   0.00000000  0.20000000  0.00000000       0.016
   0.00000000  0.00000000  0.20000000       0.016
   0.40000000  0.00000000  0.00000000       0.016
   0.00000000  0.40000000  0.00000000       0.016
   0.00000000  0.00000000  0.40000000       0.016
   0.20000000  0.20000000  0.00000000       0.016
   0.00000000  0.20000000  0.20000000       0.016
   0.20000000  0.00000000  0.20000000       0.016
  -0.20000000  0.20000000  0.00000000       0.016
  -0.20000000  0.00000000  0.20000000       0.016
   0.00000000 -0.20000000  0.20000000       0.016
   0.40000000  0.20000000  0.00000000       0.016
   0.00000000  0.40000000  0.20000000       0.016
   0.20000000  0.00000000  0.40000000       0.016
  -0.20000000  0.40000000  0.00000000       0.016
  -0.40000000  0.00000000  0.20000000       0.016
   0.00000000  0.20000000  0.40000000       0.016
   0.00000000 -0.40000000  0.20000000       0.016
  -0.20000000  0.00000000  0.40000000       0.016
   0.40000000  0.00000000  0.20000000       0.016
   0.00000000 -0.20000000  0.40000000       0.016
   0.40000000 -0.20000000  0.00000000       0.016
   0.20000000  0.40000000  0.00000000       0.016
   0.40000000  0.40000000  0.00000000       0.016
   0.00000000  0.40000000  0.40000000       0.016
   0.40000000  0.00000000  0.40000000       0.016
  -0.40000000  0.40000000  0.00000000       0.016
  -0.40000000  0.00000000  0.40000000       0.016
   0.00000000 -0.40000000  0.40000000       0.016
   0.20000000  0.20000000  0.20000000       0.016
  -0.20000000  0.20000000  0.20000000       0.016
  -0.20000000 -0.20000000  0.20000000       0.016
   0.20000000 -0.20000000  0.20000000       0.016
   0.40000000  0.20000000  0.20000000       0.016
   0.20000000  0.40000000  0.20000000       0.016
   0.20000000  0.20000000  0.40000000       0.016
  -0.20000000  0.40000000  0.20000000       0.016
  -0.40000000  0.20000000  0.20000000       0.016
  -0.20000000  0.20000000  0.40000000       0.016
  -0.40000000 -0.20000000  0.20000000       0.016
  -0.20000000 -0.40000000  0.20000000       0.016
  -0.20000000 -0.20000000  0.40000000       0.016
   0.20000000 -0.40000000  0.20000000       0.016
   0.40000000 -0.20000000  0.20000000       0.016
   0.20000000 -0.20000000  0.40000000       0.016
   0.40000000  0.40000000  0.20000000       0.016
   0.20000000  0.40000000  0.40000000       0.016
   0.40000000  0.20000000  0.40000000       0.016
  -0.40000000  0.40000000  0.20000000       0.016
  -0.40000000  0.20000000  0.40000000       0.016
  -0.20000000  0.40000000  0.40000000       0.016
  -0.40000000 -0.40000000  0.20000000       0.016
  -0.20000000 -0.40000000  0.40000000       0.016
  -0.40000000 -0.20000000  0.40000000       0.016
   0.40000000 -0.40000000  0.20000000       0.016
   0.40000000 -0.20000000  0.40000000       0.016
   0.20000000 -0.40000000  0.40000000       0.016
   0.40000000  0.40000000  0.40000000       0.016
  -0.40000000  0.40000000  0.40000000       0.016
  -0.40000000 -0.40000000  0.40000000       0.016
   0.40000000 -0.40000000  0.40000000       0.016
 
 position of ions in fractional coordinates (direct lattice) 
   0.75000000  0.25000000  0.75000000
   0.00000000  0.50000000  0.00000000
   0.00000000  0.00000000  0.00000000
   0.75000000  0.25000000  0.25000000
   0.00000000  0.00000000  0.50000000
   0.75000000  0.75000000  0.25000000
   0.50000000  0.50000000  0.50000000
   0.00000000  0.50000000  0.50000000
   0.75000000  0.75000000  0.75000000
   0.25000000  0.25000000  0.25000000
   0.50000000  0.50000000  0.00000000
   0.50000000  0.00000000  0.00000000
   0.50000000  0.00000000  0.50000000
   0.25000000  0.75000000  0.25000000
   0.25000000  0.25000000  0.75000000
   0.25000000  0.75000000  0.75000000
 
 position of ions in cartesian coordinates  (Angst):
   4.93500000  1.64500000  4.93500000
   0.00000000  3.29000000  0.00000000
   0.00000000  0.00000000  0.00000000
   4.93500000  1.64500000  1.64500000
   0.00000000  0.00000000  3.29000000
   4.93500000  4.93500000  1.64500000
   3.29000000  3.29000000  3.29000000
   0.00000000  3.29000000  3.29000000
   4.93500000  4.93500000  4.93500000
   1.64500000  1.64500000  1.64500000
   3.29000000  3.29000000  0.00000000
   3.29000000  0.00000000  0.00000000
   3.29000000  0.00000000  3.29000000
   1.64500000  4.93500000  1.64500000
   1.64500000  1.64500000  4.93500000
   1.64500000  4.93500000  4.93500000
 


--------------------------------------------------------------------------------------------------------


 k-point   1 :   0.0000 0.0000 0.0000  plane waves:    2517
 k-point   2 :   0.2000 0.0000 0.0000  plane waves:    2545
 k-point   3 :   0.0000 0.2000 0.0000  plane waves:    2545
 k-point   4 :   0.0000 0.0000 0.2000  plane waves:    2545
 k-point   5 :   0.4000 0.0000 0.0000  plane waves:    2569
 k-point   6 :   0.0000 0.4000 0.0000  plane waves:    2569
 k-point   7 :   0.0000 0.0000 0.4000  plane waves:    2569
 k-point   8 :   0.2000 0.2000 0.0000  plane waves:    2562
 k-point   9 :   0.0000 0.2000 0.2000  plane waves:    2562
 k-point  10 :   0.2000 0.0000 0.2000  plane waves:    2562
 k-point  11 :  -0.2000 0.2000 0.0000  plane waves:    2562
 k-point  12 :  -0.2000 0.0000 0.2000  plane waves:    2562
 k-point  13 :   0.0000-0.2000 0.2000  plane waves:    2562
 k-point  14 :   0.4000 0.2000 0.0000  plane waves:    2566
 k-point  15 :   0.0000 0.4000 0.2000  plane waves:    2566
 k-point  16 :   0.2000 0.0000 0.4000  plane waves:    2566
 k-point  17 :  -0.2000 0.4000 0.0000  plane waves:    2566
 k-point  18 :  -0.4000 0.0000 0.2000  plane waves:    2566
 k-point  19 :   0.0000 0.2000 0.4000  plane waves:    2566
 k-point  20 :   0.0000-0.4000 0.2000  plane waves:    2566
 k-point  21 :  -0.2000 0.0000 0.4000  plane waves:    2566
 k-point  22 :   0.4000 0.0000 0.2000  plane waves:    2566
 k-point  23 :   0.0000-0.2000 0.4000  plane waves:    2566
 k-point  24 :   0.4000-0.2000 0.0000  plane waves:    2566
 k-point  25 :   0.2000 0.4000 0.0000  plane waves:    2566
 k-point  26 :   0.4000 0.4000 0.0000  plane waves:    2570
 k-point  27 :   0.0000 0.4000 0.4000  plane waves:    2570
 k-point  28 :   0.4000 0.0000 0.4000  plane waves:    2570
 k-point  29 :  -0.4000 0.4000 0.0000  plane waves:    2570
 k-point  30 :  -0.4000 0.0000 0.4000  plane waves:    2570
 k-point  31 :   0.0000-0.4000 0.4000  plane waves:    2570
 k-point  32 :   0.2000 0.2000 0.2000  plane waves:    2572
 k-point  33 :  -0.2000 0.2000 0.2000  plane waves:    2572
 k-point  34 :  -0.2000-0.2000 0.2000  plane waves:    2572
 k-point  35 :   0.2000-0.2000 0.2000  plane waves:    2572
 k-point  36 :   0.4000 0.2000 0.2000  plane waves:    2546
 k-point  37 :   0.2000 0.4000 0.2000  plane waves:    2546
 k-point  38 :   0.2000 0.2000 0.4000  plane waves:    2546
 k-point  39 :  -0.2000 0.4000 0.2000  plane waves:    2546
 k-point  40 :  -0.4000 0.2000 0.2000  plane waves:    2546
 k-point  41 :  -0.2000 0.2000 0.4000  plane waves:    2546
 k-point  42 :  -0.4000-0.2000 0.2000  plane waves:    2546
 k-point  43 :  -0.2000-0.4000 0.2000  plane waves:    2546
 k-point  44 :  -0.2000-0.2000 0.4000  plane waves:    2546
 k-point  45 :   0.2000-0.4000 0.2000  plane waves:    2546
 k-point  46 :   0.4000-0.2000 0.2000  plane waves:    2546
 k-point  47 :   0.2000-0.2000 0.4000  plane waves:    2546
 k-point  48 :   0.4000 0.4000 0.2000  plane waves:    2549
 k-point  49 :   0.2000 0.4000 0.4000  plane waves:    2549
 k-point  50 :   0.4000 0.2000 0.4000  plane waves:    2549
 k-point  51 :  -0.4000 0.4000 0.2000  plane waves:    2549
 k-point  52 :  -0.4000 0.2000 0.4000  plane waves:    2549
 k-point  53 :  -0.2000 0.4000 0.4000  plane waves:    2549
 k-point  54 :  -0.4000-0.4000 0.2000  plane waves:    2549
 k-point  55 :  -0.2000-0.4000 0.4000  plane waves:    2549
 k-point  56 :  -0.4000-0.2000 0.4000  plane waves:    2549
 k-point  57 :   0.4000-0.4000 0.2000  plane waves:    2549
 k-point  58 :   0.4000-0.2000 0.4000  plane waves:    2549
 k-point  59 :   0.2000-0.4000 0.4000  plane waves:    2549
 k-point  60 :   0.4000 0.4000 0.4000  plane waves:    2533
 k-point  61 :  -0.4000 0.4000 0.4000  plane waves:    2533
 k-point  62 :  -0.4000-0.4000 0.4000  plane waves:    2533
 k-point  63 :   0.4000-0.4000 0.4000  plane waves:    2533

 maximum and minimum number of plane-waves per node :       235      194

 maximum number of plane-waves:      2572
 maximum index in each direction: 
   IXMAX=    8   IYMAX=    8   IZMAX=    8
   IXMIN=   -8   IYMIN=   -8   IZMIN=   -8


 parallel 3D FFT for wavefunctions:
    minimum data exchange during FFTs selected (reduces bandwidth)
 parallel 3D FFT for charge:
    minimum data exchange during FFTs selected (reduces bandwidth)


 total amount of memory used by VASP MPI-rank0    48253. kBytes
=======================================================================

   base      :      30000. kBytes
   nonl-proj :       8332. kBytes
   fftplans  :        456. kBytes
   grid      :        919. kBytes
   one-center:         31. kBytes
   wavefun   :       8515. kBytes
 
     INWAV:  cpu time      0.0000: real time      0.0001
 Broyden mixing: mesh for mixing (old mesh)
   NGX = 17   NGY = 17   NGZ = 17
  (NGX  = 72   NGY  = 72   NGZ  = 72)
  gives a total of   4913 points

 initial charge density was supplied:
 charge density of overlapping atoms calculated
 number of electron     213.0000000 magnetization 
 keeping initial charge density in first step


--------------------------------------------------------------------------------------------------------


 Maximum index for augmentation-charges          437 (set IRDMAX)


--------------------------------------------------------------------------------------------------------


 First call to EWALD:  gamma=   0.269
 Maximum number of real-space cells 3x 3x 3
 Maximum number of reciprocal cells 3x 3x 3

    FEWALD:  cpu time      0.0012: real time      0.0012


--------------------------------------- Iteration      1(   1)  ---------------------------------------


    POTLOK:  cpu time      0.0056: real time      0.0408
    SETDIJ:  cpu time      0.0028: real time      0.0030
     EDDAV:  cpu time      3.2382: real time      3.2555
       DOS:  cpu time      0.0050: real time      0.0050
    --------------------------------------------
      LOOP:  cpu time      3.2516: real time      3.3043

 eigenvalue-minimisations  : 16720
 total energy-change (2. order) : 0.1984834E+04  (-0.8478993E+04)
 number of electron     213.0000000 magnetization 
 augmentation part      213.0000000 magnetization 

 Free energy of the ion-electron system (eV)
  ---------------------------------------------------
  alpha Z        PSCENC =      1839.48694977
  Ewald energy   TEWEN  =    -22635.13885300
  -Hartree energ DENC   =     -4403.86122575
  -exchange      EXHF   =         0.00000000
  -V(xc)+E(xc)   XCENC  =       876.99919993
  PAW double counting   =     21269.03626504   -20961.95576892
  entropy T*S    EENTRO =        -0.00091967
  eigenvalues    EBANDS =      -748.47555145
  atomic energy  EATOM  =     26748.74385413
  Solvation  Ediel_sol  =         0.00000000
  ---------------------------------------------------
  free energy    TOTEN  =      1984.83395008 eV

  energy without entropy =     1984.83486975  energy(sigma->0) =     1984.83440992


--------------------------------------------------------------------------------------------------------




--------------------------------------- Iteration      1(   2)  ---------------------------------------


     EDDAV:  cpu time      3.2035: real time      3.2297
       DOS:  cpu time      0.0049: real time      0.0049
    --------------------------------------------
      LOOP:  cpu time      3.2084: real time      3.2347

 eigenvalue-minimisations  : 16808
 total energy-change (2. order) :-0.2021902E+04  (-0.1957292E+04)
 number of electron     213.0000000 magnetization 
 augmentation part      213.0000000 magnetization 

 Free energy of the ion-electron system (eV)
  ---------------------------------------------------
  alpha Z        PSCENC =      1839.48694977
  Ewald energy   TEWEN  =    -22635.13885300
  -Hartree energ DENC   =     -4403.86122575
  -exchange      EXHF   =         0.00000000
  -V(xc)+E(xc)   XCENC  =       876.99919993
  PAW double counting   =     21269.03626504   -20961.95576892
  entropy T*S    EENTRO =        -0.00128319
  eigenvalues    EBANDS =     -2770.37767326
  atomic energy  EATOM  =     26748.74385413
  Solvation  Ediel_sol  =         0.00000000
  ---------------------------------------------------
  free energy    TOTEN  =       -37.06853525 eV

  energy without entropy =      -37.06725206  energy(sigma->0) =      -37.06789366


--------------------------------------------------------------------------------------------------------




--------------------------------------- Iteration      1(   3)  ---------------------------------------


     EDDAV:  cpu time      4.2291: real time      4.2531
       DOS:  cpu time      0.0054: real time      0.0054
    --------------------------------------------
      LOOP:  cpu time      4.2345: real time      4.2584

 eigenvalue-minimisations  : 23560
 total energy-change (2. order) :-0.1497895E+03  (-0.1421691E+03)
 number of electron     213.0000000 magnetization 
 augmentation part      213.0000000 magnetization 

 Free energy of the ion-electron system (eV)
  ---------------------------------------------------
  alpha Z        PSCENC =      1839.48694977
  Ewald energy   TEWEN  =    -22635.13885300
  -Hartree energ DENC   =     -4403.86122575
  -exchange      EXHF   =         0.00000000
  -V(xc)+E(xc)   XCENC  =       876.99919993
  PAW double counting   =     21269.03626504   -20961.95576892
  entropy T*S    EENTRO =        -0.00144026
  eigenvalues    EBANDS =     -2920.16700659
  atomic energy  EATOM  =     26748.74385413
  Solvation  Ediel_sol  =         0.00000000
  ---------------------------------------------------
  free energy    TOTEN  =      -186.85802565 eV

  energy without entropy =     -186.85658539  energy(sigma->0) =     -186.85730552


--------------------------------------------------------------------------------------------------------




--------------------------------------- Iteration      1(   4)  ---------------------------------------


     EDDAV:  cpu time      3.9109: real time      3.9576
       DOS:  cpu time      0.0051: real time      0.0051
    --------------------------------------------
      LOOP:  cpu time      3.9161: real time      3.9628

 eigenvalue-minimisations  : 22128
 total energy-change (2. order) :-0.7854818E+01  (-0.7648101E+01)
 number of electron     213.0000000 magnetization 
 augmentation part      213.0000000 magnetization 

 Free energy of the ion-electron system (eV)
  ---------------------------------------------------
  alpha Z        PSCENC =      1839.48694977
  Ewald energy   TEWEN  =    -22635.13885300
  -Hartree energ DENC   =     -4403.86122575
  -exchange      EXHF   =         0.00000000
  -V(xc)+E(xc)   XCENC  =       876.99919993
  PAW double counting   =     21269.03626504   -20961.95576892
  entropy T*S    EENTRO =        -0.00189139
  eigenvalues    EBANDS =     -2928.02137336
  atomic energy  EATOM  =     26748.74385413
  Solvation  Ediel_sol  =         0.00000000
  ---------------------------------------------------
  free energy    TOTEN  =      -194.71284355 eV

  energy without entropy =     -194.71095217  energy(sigma->0) =     -194.71189786


--------------------------------------------------------------------------------------------------------




--------------------------------------- Iteration      1(   5)  ---------------------------------------


     EDDAV:  cpu time      4.4386: real time      4.4618
       DOS:  cpu time      0.0059: real time      4.5080
    CHARGE:  cpu time      0.0886: real time      0.0889
    MIXING:  cpu time      0.0004: real time      0.0004
    --------------------------------------------
      LOOP:  cpu time      4.5334: real time      9.0590

 eigenvalue-minimisations  : 25936
 total energy-change (2. order) :-0.4838905E+00  (-0.4801817E+00)
 number of electron     212.9999784 magnetization 
 augmentation part       44.1790089 magnetization 

 Broyden mixing:
  rms(total) = 0.52595E+01    rms(broyden)= 0.52580E+01
  rms(prec ) = 0.58672E+01
  weight for this iteration     100.00

 Free energy of the ion-electron system (eV)
  ---------------------------------------------------
  alpha Z        PSCENC =      1839.48694977
  Ewald energy   TEWEN  =    -22635.13885300
  -Hartree energ DENC   =     -4403.86122575
  -exchange      EXHF   =         0.00000000
  -V(xc)+E(xc)   XCENC  =       876.99919993
  PAW double counting   =     21269.03626504   -20961.95576892
  entropy T*S    EENTRO =        -0.00195192
  eigenvalues    EBANDS =     -2928.50520331
  atomic energy  EATOM  =     26748.74385413
  Solvation  Ediel_sol  =         0.00000000
  ---------------------------------------------------
  free energy    TOTEN  =      -195.19673403 eV

  energy without entropy =     -195.19478211  energy(sigma->0) =     -195.19575807


--------------------------------------------------------------------------------------------------------




--------------------------------------- Iteration      1(   6)  ---------------------------------------


    POTLOK:  cpu time      0.0041: real time      0.0043
    SETDIJ:  cpu time      0.0018: real time      0.0018
     EDDAV:  cpu time      3.4986: real time      3.5170
       DOS:  cpu time      0.0051: real time      0.0052
    CHARGE:  cpu time      0.0868: real time      0.0871
    MIXING:  cpu time      0.0003: real time      0.0003
    --------------------------------------------
      LOOP:  cpu time      3.5968: real time      3.6156

 eigenvalue-minimisations  : 19008
 total energy-change (2. order) : 0.8593238E+01  (-0.2577817E+01)
 number of electron     212.9999767 magnetization 
 augmentation part       46.1660375 magnetization 

 Broyden mixing:
  rms(total) = 0.18047E+01    rms(broyden)= 0.18043E+01
  rms(prec ) = 0.23008E+01
  weight for this iteration     100.00

 eigenvalues of (default mixing * dielectric matrix)
  average eigenvalue GAMMA=   1.3676
  1.3676

 Free energy of the ion-electron system (eV)
  ---------------------------------------------------
  alpha Z        PSCENC =      1839.48694977
  Ewald energy   TEWEN  =    -22635.13885300
  -Hartree energ DENC   =     -4151.65117961
  -exchange      EXHF   =         0.00000000
  -V(xc)+E(xc)   XCENC  =       864.64117322
  PAW double counting   =     24246.03120111   -23973.04184411
  entropy T*S    EENTRO =        -0.00111541
  eigenvalues    EBANDS =     -3125.67368254
  atomic energy  EATOM  =     26748.74385413
  Solvation  Ediel_sol  =         0.00000000
  ---------------------------------------------------
  free energy    TOTEN  =      -186.60349643 eV

  energy without entropy =     -186.60238103  energy(sigma->0) =     -186.60293873


--------------------------------------------------------------------------------------------------------




--------------------------------------- Iteration      1(   7)  ---------------------------------------


    POTLOK:  cpu time      0.0044: real time      0.0046
    SETDIJ:  cpu time      0.0017: real time      0.0017
     EDDAV:  cpu time      4.0868: real time      4.1075
       DOS:  cpu time      0.0054: real time      0.0055
    CHARGE:  cpu time      0.0826: real time      0.0829
    MIXING:  cpu time      0.0003: real time      0.0003
    --------------------------------------------
      LOOP:  cpu time      4.1813: real time      4.2025

 eigenvalue-minimisations  : 23184
 total energy-change (2. order) : 0.5084056E+00  (-0.1441402E+01)
 number of electron     212.9999774 magnetization 
 augmentation part       46.1644731 magnetization 

 Broyden mixing:
  rms(total) = 0.96927E+00    rms(broyden)= 0.96896E+00
  rms(prec ) = 0.20818E+01
  weight for this iteration     100.00

 eigenvalues of (default mixing * dielectric matrix)
  average eigenvalue GAMMA=   1.0836
  1.5402  0.6270

 Free energy of the ion-electron system (eV)
  ---------------------------------------------------
  alpha Z        PSCENC =      1839.48694977
  Ewald energy   TEWEN  =    -22635.13885300
  -Hartree energ DENC   =     -4079.62076861
  -exchange      EXHF   =         0.00000000
  -V(xc)+E(xc)   XCENC  =       860.56964036
  PAW double counting   =     25955.84897541   -25695.39659941
  entropy T*S    EENTRO =        -0.00288835
  eigenvalues    EBANDS =     -3180.58540117
  atomic energy  EATOM  =     26748.74385413
  Solvation  Ediel_sol  =         0.00000000
  ---------------------------------------------------
  free energy    TOTEN  =      -186.09509086 eV

  energy without entropy =     -186.09220251  energy(sigma->0) =     -186.09364669


--------------------------------------------------------------------------------------------------------




--------------------------------------- Iteration      1(   8)  ---------------------------------------


    POTLOK:  cpu time      0.0040: real time      0.0042
    SETDIJ:  cpu time      0.0017: real time      0.0017
     EDDAV:  cpu time      3.6090: real time      3.6242
       DOS:  cpu time      0.0060: real time      3.4782
    CHARGE:  cpu time      0.0872: real time      0.0876
    MIXING:  cpu time      0.0002: real time      0.0002
    --------------------------------------------
      LOOP:  cpu time      3.7081: real time      7.1961

 eigenvalue-minimisations  : 20160
 total energy-change (2. order) : 0.1551133E+01  (-0.7330765E+00)
 number of electron     212.9999768 magnetization 
 augmentation part       46.6497632 magnetization 

 Broyden mixing:
  rms(total) = 0.39827E+00    rms(broyden)= 0.39783E+00
  rms(prec ) = 0.60869E+00
  weight for this iteration     100.00

 eigenvalues of (default mixing * dielectric matrix)
  average eigenvalue GAMMA=   1.1012
  1.7041  1.1752  0.4245

 Free energy of the ion-electron system (eV)
  ---------------------------------------------------
  alpha Z        PSCENC =      1839.48694977
  Ewald energy   TEWEN  =    -22635.13885300
  -Hartree energ DENC   =     -4036.97112901
  -exchange      EXHF   =         0.00000000
  -V(xc)+E(xc)   XCENC  =       858.69004860
  PAW double counting   =     26555.89272967   -26301.52151882
  entropy T*S    EENTRO =        -0.00147059
  eigenvalues    EBANDS =     -3213.72456849
  atomic energy  EATOM  =     26748.74385413
  Solvation  Ediel_sol  =         0.00000000
  ---------------------------------------------------
  free energy    TOTEN  =      -184.54395774 eV

  energy without entropy =     -184.54248715  energy(sigma->0) =     -184.54322244


--------------------------------------------------------------------------------------------------------




--------------------------------------- Iteration      1(   9)  ---------------------------------------


    POTLOK:  cpu time      0.0041: real time      0.0043
    SETDIJ:  cpu time      0.0017: real time      0.0017
     EDDAV:  cpu time      3.7913: real time      3.8105
       DOS:  cpu time      0.0049: real time      0.0049
    CHARGE:  cpu time      0.0818: real time      0.0822
    MIXING:  cpu time      0.0003: real time      0.0003
    --------------------------------------------
      LOOP:  cpu time      3.8841: real time      3.9038

 eigenvalue-minimisations  : 21544
 total energy-change (2. order) :-0.6815889E-02  (-0.1441353E+00)
 number of electron     212.9999768 magnetization 
 augmentation part       46.7577549 magnetization 

 Broyden mixing:
  rms(total) = 0.32880E+00    rms(broyden)= 0.32876E+00
  rms(prec ) = 0.48638E+00
  weight for this iteration     100.00

 eigenvalues of (default mixing * dielectric matrix)
  average eigenvalue GAMMA=   1.1212
  1.8644  1.6777  0.5649  0.3778

 Free energy of the ion-electron system (eV)
  ---------------------------------------------------
  alpha Z        PSCENC =      1839.48694977
  Ewald energy   TEWEN  =    -22635.13885300
  -Hartree energ DENC   =     -4029.48274137
  -exchange      EXHF   =         0.00000000
  -V(xc)+E(xc)   XCENC  =       858.33328022
  PAW double counting   =     26807.23601961   -26554.06803632
  entropy T*S    EENTRO =        -0.00123927
  eigenvalues    EBANDS =     -3219.66000740
  atomic energy  EATOM  =     26748.74385413
  Solvation  Ediel_sol  =         0.00000000
  ---------------------------------------------------
  free energy    TOTEN  =      -184.55077363 eV

  energy without entropy =     -184.54953436  energy(sigma->0) =     -184.55015399


--------------------------------------------------------------------------------------------------------




--------------------------------------- Iteration      1(  10)  ---------------------------------------


    POTLOK:  cpu time      0.0041: real time      0.0042
    SETDIJ:  cpu time      0.0017: real time      0.0017
     EDDAV:  cpu time      3.8583: real time      3.8772
       DOS:  cpu time      0.0058: real time      0.0059
    CHARGE:  cpu time      0.0884: real time      0.0887
    MIXING:  cpu time      0.0003: real time      0.0003
    --------------------------------------------
      LOOP:  cpu time      3.9586: real time      3.9781

 eigenvalue-minimisations  : 21848
 total energy-change (2. order) : 0.5843817E-01  (-0.4073860E-01)
 number of electron     212.9999769 magnetization 
 augmentation part       46.6790877 magnetization 

 Broyden mixing:
  rms(total) = 0.12718E+00    rms(broyden)= 0.12715E+00
  rms(prec ) = 0.21273E+00
  weight for this iteration     100.00

 eigenvalues of (default mixing * dielectric matrix)
  average eigenvalue GAMMA=   1.1510
  2.2099  1.8193  0.9056  0.4315  0.3887

 Free energy of the ion-electron system (eV)
  ---------------------------------------------------
  alpha Z        PSCENC =      1839.48694977
  Ewald energy   TEWEN  =    -22635.13885300
  -Hartree energ DENC   =     -4030.82175590
  -exchange      EXHF   =         0.00000000
  -V(xc)+E(xc)   XCENC  =       858.36774877
  PAW double counting   =     26957.78040157   -26704.53142709
  entropy T*S    EENTRO =        -0.00190751
  eigenvalues    EBANDS =     -3218.37734620
  atomic energy  EATOM  =     26748.74385413
  Solvation  Ediel_sol  =         0.00000000
  ---------------------------------------------------
  free energy    TOTEN  =      -184.49233545 eV

  energy without entropy =     -184.49042795  energy(sigma->0) =     -184.49138170


--------------------------------------------------------------------------------------------------------




--------------------------------------- Iteration      1(  11)  ---------------------------------------


    POTLOK:  cpu time      0.0043: real time      0.0046
    SETDIJ:  cpu time      0.0017: real time      0.0017
     EDDAV:  cpu time      3.7171: real time      3.7330
       DOS:  cpu time      0.0056: real time      6.7018
    CHARGE:  cpu time      0.0885: real time      0.0890
    MIXING:  cpu time      0.0004: real time      0.0004
    --------------------------------------------
      LOOP:  cpu time      3.8176: real time     10.5306

 eigenvalue-minimisations  : 21328
 total energy-change (2. order) : 0.3707363E-02  (-0.1128072E-01)
 number of electron     212.9999769 magnetization 
 augmentation part       46.6623405 magnetization 

 Broyden mixing:
  rms(total) = 0.54864E-01    rms(broyden)= 0.54813E-01
  rms(prec ) = 0.12977E+00
  weight for this iteration     100.00

 eigenvalues of (default mixing * dielectric matrix)
  average eigenvalue GAMMA=   1.0642
  2.3696  1.7759  0.9642  0.4547  0.4547  0.3660

 Free energy of the ion-electron system (eV)
  ---------------------------------------------------
  alpha Z        PSCENC =      1839.48694977
  Ewald energy   TEWEN  =    -22635.13885300
  -Hartree energ DENC   =     -4031.53461745
  -exchange      EXHF   =         0.00000000
  -V(xc)+E(xc)   XCENC  =       858.39871870
  PAW double counting   =     26986.18513845   -26732.77048379
  entropy T*S    EENTRO =        -0.00175250
  eigenvalues    EBANDS =     -3217.85758240
  atomic energy  EATOM  =     26748.74385413
  Solvation  Ediel_sol  =         0.00000000
  ---------------------------------------------------
  free energy    TOTEN  =      -184.48862809 eV

  energy without entropy =     -184.48687559  energy(sigma->0) =     -184.48775184


--------------------------------------------------------------------------------------------------------




--------------------------------------- Iteration      1(  12)  ---------------------------------------


    POTLOK:  cpu time      0.0043: real time      0.0045
    SETDIJ:  cpu time      0.0017: real time      0.0017
     EDDAV:  cpu time      3.7745: real time      3.7940
       DOS:  cpu time      0.0051: real time      0.0051
    CHARGE:  cpu time      0.0841: real time      0.0843
[...]
     33     -25.4688      2.00000
     34     -25.4425      2.00000
     35     -25.4249      2.00000
     36     -25.4034      2.00000
     37     -25.3819      2.00000
     38     -25.3201      2.00000
     39     -25.3058      2.00000
     40     -25.2764      2.00000
     41     -25.2422      2.00000
     42     -25.2203      2.00000
     43     -25.1932      2.00000
     44     -25.1710      2.00000
     45     -25.1439      2.00000
     46     -25.1263      2.00000
     47     -24.7318      2.00000
     48     -24.6802      2.00000
     49     -24.5585      2.00000
     50     -24.5433      2.00000
     51     -24.5045      2.00000
     52     -24.4926      2.00000
     53     -24.4518      2.00000
     54     -24.3589      2.00000
     55     -24.2916      2.00000
     56     -21.3919      2.00000
     57     -21.1808      2.00000
     58     -21.1775      2.00000
     59     -21.1243      2.00000
     60     -21.1211      2.00000
     61     -20.9277      2.00000
     62       3.8812      2.00000
     63       4.4999      2.00000
     64       4.6361      2.00000
     65       5.0632      2.00000
     66       5.2298      2.00000
     67       5.5474      2.00000
     68       5.6619      2.00000
     69       6.2098      2.00000
     70       6.5043      2.00000
     71       6.5108      2.00000
     72       6.5245      2.00000
     73       6.5541      2.00000
     74       6.5913      2.00000
     75       6.7040      2.00000
     76       6.7609      2.00000
     77       6.7874      2.00000
     78       6.8427      2.00000
     79       6.8875      2.00000
     80       6.9225      2.00000
     81       6.9393      2.00000
     82       7.2165      2.00000
     83       7.2364      2.00000
     84       7.3161      2.00000
     85       7.3788      2.00000
     86       7.4120      2.00000
     87       7.4379      2.00000
     88       7.4617      2.00000
     89       7.4779      2.00000
     90       7.5227      2.00000
     91       7.5453      2.00000
     92       7.6039      2.00000
     93       7.6402      2.00000
     94       7.6450      2.00000
     95       7.6724      2.00000
     96       7.6799      2.00000
     97       7.7196      2.00000
     98       7.7367      2.00000
     99       7.7629      2.00000
    100       7.7933      2.00000
    101       7.8207      2.00000
    102       7.8967      2.00000
    103       7.9269      2.00000
    104       7.9649      2.00000
    105       8.0276      2.00000
    106       8.0491      2.00000
    107       8.0965      2.00000
    108       8.1598      2.00000
    109       8.5355      2.00000
    110      11.0498      0.00000
    111      11.0960      0.00000
    112      11.1838      0.00000
    113      11.2102      0.00000
    114      11.2996      0.00000
    115      11.3517      0.00000
    116      11.3892      0.00000
    117      11.4453      0.00000
    118      11.4924      0.00000
    119      11.5467      0.00000
    120      11.6017      0.00000
    121      11.6187      0.00000
    122      11.6726      0.00000
    123      11.7313      0.00000
    124      11.7752      0.00000
    125      11.8304      0.00000
    126      11.9434      0.00000
    127      12.0760      0.00000
    128      12.1630      0.00000

 k-point    63 :       0.4000   -0.4000    0.4000
  band No.  band energies     occupation 
      1     -64.4057      2.00000
      2     -64.3845      2.00000
      3     -64.3771      2.00000
      4     -64.3619      2.00000
      5     -51.3477      2.00000
      6     -51.3270      2.00000
      7     -51.3145      2.00000
      8     -51.2965      2.00000
      9     -51.2625      2.00000
     10     -51.2465      2.00000
     11     -51.2353      2.00000
     12     -45.0982      2.00000
     13     -45.0431      2.00000
     14     -28.7567      2.00000
     15     -28.7466      2.00000
     16     -28.6656      2.00000
     17     -28.6200      2.00000
     18     -28.6018      2.00000
     19     -28.5895      2.00000
     20     -28.5761      2.00000
     21     -28.5664      2.00000
     22     -28.5502      2.00000
     23     -28.4846      2.00000
     24     -28.4087      2.00000
     25     -28.3989      2.00000
     26     -25.6622      2.00000
     27     -25.6516      2.00000
     28     -25.6131      2.00000
     29     -25.5985      2.00000
     30     -25.5693      2.00000
     31     -25.5390      2.00000
     32     -25.4999      2.00000
     33     -25.4660      2.00000
     34     -25.4489      2.00000
     35     -25.4155      2.00000
     36     -25.4058      2.00000
     37     -25.3802      2.00000
     38     -25.3227      2.00000
     39     -25.3056      2.00000
     40     -25.2824      2.00000
     41     -25.2437      2.00000
     42     -25.2196      2.00000
     43     -25.1965      2.00000
     44     -25.1714      2.00000
     45     -25.1483      2.00000
     46     -25.1272      2.00000
     47     -24.7276      2.00000
     48     -24.6743      2.00000
     49     -24.5585      2.00000
     50     -24.5422      2.00000
     51     -24.5043      2.00000
     52     -24.4929      2.00000
     53     -24.4514      2.00000
     54     -24.3608      2.00000
     55     -24.2943      2.00000
     56     -21.3919      2.00000
     57     -21.1808      2.00000
     58     -21.1775      2.00000
     59     -21.1244      2.00000
     60     -21.1211      2.00000
     61     -20.9277      2.00000
     62       3.8814      2.00000
     63       4.5019      2.00000
     64       4.6348      2.00000
     65       5.0652      2.00000
     66       5.2146      2.00000
     67       5.5510      2.00000
     68       5.6806      2.00000
     69       6.2001      2.00000
     70       6.4704      2.00000
     71       6.5203      2.00000
     72       6.5338      2.00000
     73       6.5435      2.00000
     74       6.6159      2.00000
     75       6.7071      2.00000
     76       6.7888      2.00000
     77       6.8117      2.00000
     78       6.8336      2.00000
     79       6.8722      2.00000
     80       6.9042      2.00000
     81       6.9268      2.00000
     82       7.2155      2.00000
     83       7.2274      2.00000
     84       7.3252      2.00000
     85       7.3561      2.00000
     86       7.3956      2.00000
     87       7.4442      2.00000
     88       7.4746      2.00000
     89       7.4972      2.00000
     90       7.5237      2.00000
     91       7.5438      2.00000
     92       7.5877      2.00000
     93       7.6316      2.00000
     94       7.6512      2.00000
     95       7.6807      2.00000
     96       7.6871      2.00000
     97       7.7055      2.00000
     98       7.7471      2.00000
     99       7.7608      2.00000
    100       7.7814      2.00000
    101       7.8418      2.00000
    102       7.8835      2.00000
    103       7.9340      2.00000
    104       7.9577      2.00000
    105       8.0199      2.00000
    106       8.0356      2.00000
    107       8.1333      2.00000
    108       8.1818      2.00000
    109       8.5164      2.00000
    110      11.0852      0.00000
    111      11.1353      0.00000
    112      11.1763      0.00000
    113      11.2154      0.00000
    114      11.2742      0.00000
    115      11.3516      0.00000
    116      11.3888      0.00000
    117      11.4535      0.00000
    118      11.4945      0.00000
    119      11.5143      0.00000
    120      11.5590      0.00000
    121      11.6158      0.00000
    122      11.6369      0.00000
    123      11.7446      0.00000
    124      11.7910      0.00000
    125      11.8880      0.00000
    126      11.9360      0.00000
    127      11.9935      0.00000
    128      12.0652      0.00000


--------------------------------------------------------------------------------------------------------


 soft charge-density along one line, spin component           1
         0         1         2         3         4         5         6         7         8         9
 total charge-density along one line
 
 pseudopotential strength for first ion, spin component:           1
  5.804 -20.426  -0.001  -0.003   0.002   0.002   0.008  -0.005
-20.426   9.329  -0.001  -0.005   0.003   0.000   0.000  -0.000
 -0.001  -0.001  -9.829   0.002   0.003   6.092  -0.003  -0.003
 -0.003  -0.005   0.002  -9.827  -0.001  -0.003   6.090   0.002
  0.002   0.003   0.003  -0.001  -9.830  -0.003   0.002   6.092
  0.002   0.000   6.092  -0.003  -0.003   7.882   0.002   0.002
  0.008   0.000  -0.003   6.090   0.002   0.002   7.883  -0.001
 -0.005  -0.000  -0.003   0.002   6.092   0.002  -0.001   7.882
  0.002   0.001   0.002  -0.000  -0.001  -0.002   0.000   0.001
  0.002   0.001  -0.003  -0.001  -0.000   0.004   0.001   0.000
  0.001   0.000   0.000  -0.003  -0.001  -0.000   0.004   0.001
 -0.001  -0.000  -0.000   0.002  -0.003   0.000  -0.003   0.004
 -0.000  -0.000   0.001  -0.000   0.002  -0.001   0.000  -0.002
  0.002   0.001   0.003  -0.000  -0.001  -0.003   0.000   0.001
  0.002   0.001  -0.004  -0.001  -0.000   0.006   0.001   0.000
  0.001   0.000   0.000  -0.004  -0.001  -0.000   0.005   0.002
 -0.001  -0.001  -0.000   0.003  -0.004   0.000  -0.003   0.006
 -0.000  -0.000   0.001  -0.000   0.002  -0.001   0.000  -0.003
 total augmentation occupancy for first ion, spin component:           1
  1.995  -0.049   0.000   0.000   0.000   0.000   0.000   0.000   0.006   0.006   0.001  -0.004  -0.001  -0.005  -0.005  -0.001
 -0.049   1.299   0.001   0.002   0.000   0.001   0.003  -0.002   0.013   0.013   0.004  -0.018  -0.010  -0.004  -0.004   0.000
  0.000   0.001   1.996  -0.000  -0.000  -0.032   0.000   0.001   0.002   0.007   0.000   0.005   0.001  -0.001  -0.004  -0.000
  0.000   0.002  -0.000   1.996   0.000   0.000  -0.032  -0.001   0.005   0.004  -0.007   0.002  -0.000  -0.003  -0.002   0.005
  0.000   0.000  -0.000   0.000   1.996   0.001  -0.001  -0.032   0.004   0.005  -0.003   0.006   0.005  -0.002  -0.003   0.002
  0.000   0.001  -0.032   0.000   0.001   0.069  -0.000  -0.000  -0.012   0.001  -0.001  -0.008  -0.003   0.007   0.001   0.001
  0.000   0.003   0.000  -0.032  -0.001  -0.000   0.069   0.001  -0.008  -0.005   0.016  -0.012   0.000   0.004   0.004  -0.006
  0.000  -0.002   0.001  -0.001  -0.032  -0.000   0.001   0.069  -0.005  -0.008   0.004   0.002  -0.007   0.004   0.004  -0.002
  0.006   0.013   0.002   0.005   0.004  -0.012  -0.008  -0.005   3.245  -0.034  -0.039   0.028   0.001  -1.351   0.017   0.019
  0.006   0.013   0.007   0.004   0.005   0.001  -0.005  -0.008  -0.034   3.241   0.022   0.034  -0.034   0.017  -1.348  -0.010
  0.001   0.004   0.000  -0.007  -0.003  -0.001   0.016   0.004  -0.039   0.022   2.532  -0.017   0.011   0.018  -0.009  -1.136
 -0.004  -0.018   0.005   0.002   0.006  -0.008  -0.012   0.002   0.028   0.034  -0.017   3.265  -0.033  -0.007  -0.009   0.007
 -0.001  -0.010   0.001  -0.000   0.005  -0.003   0.000  -0.007   0.001  -0.034   0.011  -0.033   2.524  -0.001   0.016   0.000
 -0.005  -0.004  -0.001  -0.003  -0.002   0.007   0.004   0.004  -1.351   0.017   0.018  -0.007  -0.001   0.574  -0.008  -0.009
 -0.005  -0.004  -0.004  -0.002  -0.003   0.001   0.004   0.004   0.017  -1.348  -0.009  -0.009   0.016  -0.008   0.572   0.004
 -0.001   0.000  -0.000   0.005   0.002   0.001  -0.006  -0.002   0.019  -0.010  -1.136   0.007   0.000  -0.009   0.004   0.516
  0.003   0.010  -0.003  -0.001  -0.004   0.004   0.007   0.000  -0.007  -0.009   0.007  -1.357   0.013   0.002   0.002  -0.003
  0.001   0.002  -0.000   0.000  -0.004   0.001   0.000   0.003  -0.001   0.016   0.000   0.013  -1.137   0.000  -0.007  -0.002


------------------------ aborting loop because EDIFF is reached ----------------------------------------


    CHARGE:  cpu time      0.0862: real time      0.0865
    FORLOC:  cpu time      0.0005: real time      0.0005
    FORNL :  cpu time      0.8213: real time      0.8239
    STRESS:  cpu time      1.0200: real time      1.0237
    FORCOR:  cpu time      0.0046: real time      0.0047
    FORHAR:  cpu time      0.0015: real time      0.0015
    MIXING:  cpu time      0.0007: real time      0.0007
    OFIELD:  cpu time      0.0000: real time      0.0000

  FORCE on cell =-STRESS in cart. coord.  units (eV):
  Direction    XX          YY          ZZ          XY          YZ          ZX
  --------------------------------------------------------------------------------------
  Alpha Z  1839.48695  1839.48695  1839.48695
  Ewald   -7545.60738 -7514.60812 -7574.99533    -2.10768    -2.10768   -21.07683
  Hartree  1341.18700  1374.02337  1315.76830    -2.17971    -2.20375   -19.02340
  E(xc)    -989.30162  -989.27426  -989.24948     0.00919     0.00973     0.03625
  Local    1742.02484  1677.94773  1796.09570     4.04505     4.10681    38.36294
  n-local  -359.81897  -359.34894  -359.36163    -0.13940    -0.12031     0.33775
  augment   604.56848   604.33916   604.35426     0.04005     0.04231     0.33434
  Kinetic  3333.48641  3333.31328  3333.75989     0.29677     0.28696     0.80378
  Fock        0.00000     0.00000     0.00000     0.00000     0.00000     0.00000
  -------------------------------------------------------------------------------------
  Total     -33.97430   -34.12083   -34.14133    -0.03573     0.01407    -0.22517
  in kB    -191.06602  -191.89007  -192.00536    -0.20091     0.07912    -1.26632
  external pressure =     -191.65 kB  Pullay stress =        0.00 kB


 VOLUME and BASIS-vectors are now :
 -----------------------------------------------------------------------------
  energy-cutoff  :      250.00
  volume of cell :      284.89
      direct lattice vectors                 reciprocal lattice vectors
     6.580000000  0.000000000  0.000000000     0.151975684  0.000000000  0.000000000
     0.000000000  6.580000000  0.000000000     0.000000000  0.151975684  0.000000000
     0.000000000  0.000000000  6.580000000     0.000000000  0.000000000  0.151975684

  length of vectors
     6.580000000  6.580000000  6.580000000     0.151975684  0.151975684  0.151975684


 FORCES acting on ions
    electron-ion (+dipol)            ewald-force                    non-local-force                 convergence-correction
 -----------------------------------------------------------------------------------------------
   0.513E+02 -.104E+02 -.722E+02   -.510E+02 0.102E+02 0.714E+02   0.738E-01 0.789E-01 0.894E-01   -.344E-04 -.693E-04 -.105E-03
   -.204E+02 0.413E+02 -.204E+02   0.204E+02 -.408E+02 0.204E+02   -.169E+00 -.778E-01 -.308E-02   -.870E-04 -.893E-04 -.247E-04
   -.218E+02 -.442E+02 -.220E+02   0.220E+02 0.439E+02 0.220E+02   -.130E+00 -.619E-01 0.650E-02   -.798E-04 0.119E-03 -.341E-04
   0.549E+02 -.111E+02 0.772E+02   -.549E+02 0.110E+02 -.769E+02   0.141E+00 -.116E-01 0.168E+00   -.295E-04 -.517E-04 0.917E-04
   -.218E+02 -.442E+02 0.220E+02   0.220E+02 0.439E+02 -.220E+02   -.143E+00 -.279E-01 -.114E-01   -.718E-04 0.230E-04 0.389E-04
   0.550E+02 0.112E+02 0.774E+02   -.549E+02 -.110E+02 -.769E+02   0.901E-01 -.267E-01 0.334E-01   -.272E-04 0.501E-04 0.153E-03
   0.219E+02 0.442E+02 0.220E+02   -.220E+02 -.439E+02 -.220E+02   0.894E-01 0.163E-01 -.186E-01   0.102E-03 -.626E-04 0.345E-04
   -.218E+02 0.442E+02 0.220E+02   0.220E+02 -.439E+02 -.220E+02   -.114E+00 0.603E-01 -.141E-01   -.655E-04 -.229E-04 0.335E-04
   0.549E+02 0.111E+02 -.772E+02   -.549E+02 -.110E+02 0.769E+02   0.132E+00 0.253E-01 -.148E+00   -.123E-04 0.586E-04 -.153E-03
   -.435E+02 -.886E+01 0.612E+02   0.431E+02 0.863E+01 -.604E+02   -.239E-01 0.279E-01 -.258E-01   -.184E-04 -.522E-04 0.909E-04
   0.173E+02 0.350E+02 -.173E+02   -.173E+02 -.345E+02 0.173E+02   0.495E-01 0.156E-01 -.262E-02   0.944E-04 -.727E-04 -.252E-04
   0.174E+02 -.350E+02 -.173E+02   -.173E+02 0.345E+02 0.173E+02   0.283E-01 0.118E-01 -.949E-02   0.928E-04 0.675E-04 -.212E-04
   0.220E+02 -.442E+02 0.220E+02   -.220E+02 0.439E+02 -.220E+02   -.355E-01 -.109E+00 -.675E-02   0.104E-03 0.119E-03 0.337E-04
   -.551E+02 0.111E+02 0.773E+02   0.549E+02 -.110E+02 -.769E+02   -.251E-01 0.788E-01 0.197E+00   -.269E-05 0.459E-04 0.166E-03
   -.551E+02 -.111E+02 -.772E+02   0.549E+02 0.110E+02 0.769E+02   -.290E-01 -.714E-01 -.202E+00   -.948E-06 -.497E-04 -.104E-03
   -.551E+02 0.112E+02 -.774E+02   0.549E+02 -.110E+02 0.769E+02   0.282E-02 0.319E-01 -.821E-01   0.133E-04 0.310E-04 -.116E-03
 -----------------------------------------------------------------------------------------------
   0.629E-01 0.398E-01 0.298E-01   0.568E-13 0.199E-12 -.142E-13   -.628E-01 -.398E-01 -.299E-01   -.238E-04 0.432E-04 0.586E-04
 
 
 POSITION                                       TOTAL-FORCE (eV/Angst)
 -----------------------------------------------------------------------------------
      4.93500      1.64500      4.93500         0.382613     -0.158064     -0.700421
      0.00000      3.29000      0.00000        -0.183481      0.403357     -0.017516
      0.00000      0.00000      0.00000         0.007903     -0.345931     -0.008105
      4.93500      1.64500      1.64500         0.157304     -0.161647      0.481142
      0.00000      0.00000      3.29000        -0.002092     -0.343890      0.019730
      4.93500      4.93500      1.64500         0.189600      0.179605      0.507881
      3.29000      3.29000      3.29000        -0.019602      0.310816      0.018416
      0.00000      3.29000      3.29000         0.018190      0.326128      0.021763
      4.93500      4.93500      4.93500         0.164554      0.186387     -0.495443
      1.64500      1.64500      1.64500        -0.376860     -0.201748      0.780748
      3.29000      3.29000      0.00000         0.121236      0.490669     -0.006804
      3.29000      0.00000      0.00000         0.146379     -0.507398     -0.008163
      3.29000      0.00000      3.29000        -0.026816     -0.415556      0.018063
      1.64500      4.93500      1.64500        -0.199528      0.214663      0.577907
      1.64500      1.64500      4.93500        -0.175492     -0.184574     -0.574287
      1.64500      4.93500      4.93500        -0.203908      0.207182     -0.614910
 -----------------------------------------------------------------------------------
    total drift:                                0.000034      0.000016      0.000008


--------------------------------------------------------------------------------------------------------



  FREE ENERGIE OF THE ION-ELECTRON SYSTEM (eV)
  ---------------------------------------------------
  free  energy   TOTEN  =      -184.48294939 eV

  energy  without entropy=     -184.48124190  energy(sigma->0) =     -184.48209564
 


--------------------------------------------------------------------------------------------------------


    POTLOK:  cpu time      0.0062: real time      0.0086


--------------------------------------------------------------------------------------------------------


     LOOP+:  cpu time     89.0410: real time    143.3291
    4ORBIT:  cpu time      0.0000: real time      0.0000

 total amount of memory used by VASP MPI-rank0    48253. kBytes
=======================================================================

   base      :      30000. kBytes
   nonl-proj :       8332. kBytes
   fftplans  :        456. kBytes
   grid      :        919. kBytes
   one-center:         31. kBytes
   wavefun   :       8515. kBytes
 
  
  
 General timing and accounting informations for this job:
 ========================================================
  
                  Total CPU time used (sec):       92.942
                            User time (sec):       91.388
                          System time (sec):        1.554
                         Elapsed time (sec):      148.003
  
                   Maximum memory used (kb):       89752.
                   Average memory used (kb):          N/A
  
                          Minor page faults:         8532
                          Major page faults:            0
                 Voluntary context switches:          252
