 vasp.6.3.1 04May22 (build Jul 26 2022 04:02:40) complex                        
  
 executed on             LinuxIFC date 2023.11.30  03:04:19
 running on   48 total cores
 distrk:  each k-point on   48 cores,    1 groups
 distr:  one band on NCORE=  12 cores,    4 groups


--------------------------------------------------------------------------------------------------------


 INCAR:
   ISTART = 0
   NWRITE = 2
   PREC = Accurate
   ENCUT = 250
   GGA = PE
   NSW = 0
   ISIF = 2
   ISYM = 2
   NBLOCK = 1
   KBLOCK = 1
   IBRION = -1
   NELM = 80
   EDIFF = 1E-08
   EDIFFG = -0.01
   ALGO = Normal
   LDIAG = .TRUE.
   LREAL = .FALSE.
   ISMEAR = 0
   SIGMA = 0.02
   ICHARG = 2
   LPLANE = .TRUE.
   NPAR = 4
   LSCALU = .FALSE.
   NSIM = 4
   LWAVE = .FALSE.
   LCHARG = .FALSE.
   ICORELEVEL = 1

 POTCAR:    PAW_PBE Nb_sv 25May2007               
 POTCAR:    PAW_PBE Mo_sv 02Feb2006               
 POTCAR:    PAW_PBE Ta_pv 07Sep2000               
 POTCAR:    PAW_PBE W_sv 04Sep2015                
 POTCAR:    PAW_PBE Nb_sv 25May2007               
   SHA256 =  0e8fc07c9fcd1164cf2ade22d0399fd28f85e91cd773dfa6cf24839a48c95e24 Nb_sv/POTCAR          
   COPYR  = (c) Copyright 25May2007 Georg Kresse                                                    
   COPYR  = This file is part of the software VASP. Any use, copying, and all other rights are regul
   COPYR  = If you do not have a valid VASP license, you may not use, copy or distribute this file. 
   VRHFIN =Nb: 4p5s4d                                                                               
   LEXCH  = PE                                                                                      
   EATOM  =  1555.1913 eV,  114.3033 Ry                                                             
                                                                                                    
   TITEL  = PAW_PBE Nb_sv 25May2007                                                                 
   LULTRA =        F    use ultrasoft PP ?                                                          
   IUNSCR =        1    unscreen: 0-lin 1-nonlin 2-no                                               
   RPACOR =    1.800    partial core radius                                                         
   POMASS =   92.910; ZVAL   =   13.000    mass and valenz                                          
   RCORE  =    2.400    outmost cutoff radius                                                       
   RWIGS  =    2.400; RWIGS  =    1.270    wigner-seitz radius (au A)                               
   ENMAX  =  293.235; ENMIN  =  219.927 eV                                                          
   ICORE  =        3    local potential                                                             
   LCOR   =        T    correct aug charges                                                         
   LPAW   =        T    paw PP                                                                      
   EAUG   =  455.659                                                                                
   DEXC   =    0.000                                                                                
   RMAX   =    2.456    core radius for proj-oper                                                   
   RAUG   =    1.300    factor for augmentation sphere                                              
   RDEP   =    2.451    radius for radial grids                                                     
   RDEPT  =    1.956    core radius for aug-charge                                                  
                                                                                                    
   Atomic configuration                                                                             
   11 entries                                                                                       
     n  l   j            E        occ.                                                              
     1  0  0.50    -18805.2457   2.0000                                                             
     2  0  0.50     -2630.2869   2.0000                                                             
     2  1  1.50     -2348.4046   6.0000                                                             
     3  0  0.50      -438.8757   2.0000                                                             
     3  1  1.50      -346.7588   6.0000                                                             
     3  2  2.50      -196.2560  10.0000                                                             
     4  0  0.50       -58.3859   2.0000                                                             
     5  0  0.50        -3.9816   1.0000                                                             
     4  1  1.50       -34.5141   6.0000                                                             
     4  2  2.50        -3.0408   4.0000                                                             
     4  3  2.50        -1.3606   0.0000                                                             
   Description                                                                                      
     l       E           TYP  RCUT    TYP  RCUT                                                     
     0    -58.3859094     23  2.200                                                                 
     0     -3.9816262     23  2.200                                                                 
     1    -34.5140738     23  2.200                                                                 
     1     13.6058260     23  2.200                                                                 
     2     -3.0408010     23  2.200                                                                 
     2     -0.1283038     23  2.200                                                                 
     3     -1.3605826     23  2.400                                                                 
  local pseudopotential read in
  partial core-charges read in
  partial kinetic energy density read in
  atomic valenz-charges read in
  non local Contribution for L=           0  read in
    real space projection operators read in
  non local Contribution for L=           0  read in
    real space projection operators read in
  non local Contribution for L=           1  read in
    real space projection operators read in
  non local Contribution for L=           1  read in
    real space projection operators read in
  non local Contribution for L=           2  read in
    real space projection operators read in
  non local Contribution for L=           2  read in
    real space projection operators read in
    PAW grid and wavefunctions read in
 
   number of l-projection  operators is LMAX  =           6
   number of lm-projection operators is LMMAX =          18
 
 POTCAR:    PAW_PBE Mo_sv 02Feb2006               
   SHA256 =  2731df97e41766cc617548c5a8267718fdef1f509ac6bafa01e745abea2bdfaa Mo_sv/POTCAR          
   COPYR  = (c) Copyright 02Feb2006 Georg Kresse                                                    
   COPYR  = This file is part of the software VASP. Any use, copying, and all other rights are regul
   COPYR  = If you do not have a valid VASP license, you may not use, copy or distribute this file. 
   VRHFIN =Mo: 4p5s4d                                                                               
   LEXCH  = PE                                                                                      
   EATOM  =  1862.2866 eV,  136.8742 Ry                                                             
                                                                                                    
   TITEL  = PAW_PBE Mo_sv 02Feb2006                                                                 
   LULTRA =        F    use ultrasoft PP ?                                                          
   IUNSCR =        1    unscreen: 0-lin 1-nonlin 2-no                                               
   RPACOR =    2.200    partial core radius                                                         
   POMASS =   95.940; ZVAL   =   14.000    mass and valenz                                          
   RCORE  =    2.500    outmost cutoff radius                                                       
   RWIGS  =    2.750; RWIGS  =    1.455    wigner-seitz radius (au A)                               
   ENMAX  =  242.676; ENMIN  =  182.007 eV                                                          
   ICORE  =        3    local potential                                                             
   LCOR   =        T    correct aug charges                                                         
   LPAW   =        T    paw PP                                                                      
   EAUG   =  446.014                                                                                
   DEXC   =    0.000                                                                                
   RMAX   =    2.563    core radius for proj-oper                                                   
   RAUG   =    1.300    factor for augmentation sphere                                              
   RDEP   =    2.641    radius for radial grids                                                     
   RDEPT  =    2.031    core radius for aug-charge                                                  
                                                                                                    
   Atomic configuration                                                                             
   11 entries                                                                                       
     n  l   j            E        occ.                                                              
     1  0  0.50    -19819.0341   2.0000                                                             
     2  0  0.50     -2799.0127   2.0000                                                             
     2  1  1.50     -2502.0276   6.0000                                                             
     3  0  0.50      -476.4449   2.0000                                                             
     3  1  1.50      -379.1496   6.0000                                                             
     3  2  2.50      -220.9367  10.0000                                                             
     4  0  0.50       -64.3378   2.0000                                                             
     5  0  0.50        -4.0862   1.0000                                                             
     4  1  1.50       -38.4773   6.0000                                                             
     4  2  2.50        -3.7535   5.0000                                                             
     4  3  2.50        -1.3606   0.0000                                                             
   Description                                                                                      
     l       E           TYP  RCUT    TYP  RCUT                                                     
     0    -64.3377829     23  2.100                                                                 
     0     -4.0861640     23  2.400                                                                 
     1    -38.4772993     23  2.100                                                                 
     1     13.6058260     23  2.100                                                                 
     2     -3.7534941     23  2.400                                                                 
     2     -5.1140767     23  2.400                                                                 
     3     -4.0817478     23  2.500                                                                 
  local pseudopotential read in
  partial core-charges read in
  partial kinetic energy density read in
  atomic valenz-charges read in
  non local Contribution for L=           0  read in
    real space projection operators read in
  non local Contribution for L=           0  read in
    real space projection operators read in
  non local Contribution for L=           1  read in
    real space projection operators read in
  non local Contribution for L=           1  read in
    real space projection operators read in
  non local Contribution for L=           2  read in
    real space projection operators read in
  non local Contribution for L=           2  read in
    real space projection operators read in
    PAW grid and wavefunctions read in
 
   number of l-projection  operators is LMAX  =           6
   number of lm-projection operators is LMMAX =          18
 
 POTCAR:    PAW_PBE Ta_pv 07Sep2000               
   SHA256 =  00d0a14a36c127416459414afb8617d9754996fffa60a2465888e660b20a452f Ta_pv/POTCAR          
   COPYR  = (c) Copyright 07Sep2000 Georg Kresse                                                    
   COPYR  = This file is part of the software VASP. Any use, copying, and all other rights are regul
   COPYR  = If you do not have a valid VASP license, you may not use, copy or distribute this file. 
   VRHFIN =Ta:  5p6s5d                                                                              
   LEXCH  = PE                                                                                      
   EATOM  =  1047.1984 eV,   76.9669 Ry                                                             
                                                                                                    
   TITEL  = PAW_PBE Ta_pv 07Sep2000                                                                 
   LULTRA =        F    use ultrasoft PP ?                                                          
   IUNSCR =        1    unscreen: 0-lin 1-nonlin 2-no                                               
   RPACOR =    2.330    partial core radius                                                         
   POMASS =  180.948; ZVAL   =   11.000    mass and valenz                                          
   RCORE  =    2.500    outmost cutoff radius                                                       
   RWIGS  =    2.840; RWIGS  =    1.503    wigner-seitz radius (au A)                               
   ENMAX  =  223.667; ENMIN  =  167.750 eV                                                          
   RCLOC  =    2.205    cutoff for local pot                                                        
   LCOR   =        T    correct aug charges                                                         
   LPAW   =        T    paw PP                                                                      
   EAUG   =  377.421                                                                                
   DEXC   =    0.000                                                                                
   RMAX   =    2.551    core radius for proj-oper                                                   
   RAUG   =    1.300    factor for augmentation sphere                                              
   RDEP   =    2.526    radius for radial grids                                                     
   RDEPT  =    2.132    core radius for aug-charge                                                  
                                                                                                    
   Atomic configuration                                                                             
   15 entries                                                                                       
     n  l   j            E        occ.                                                              
     1  0  0.50    -67341.2801   2.0000                                                             
     2  0  0.50    -11566.9369   2.0000                                                             
     2  1  1.50    -10134.1175   6.0000                                                             
     3  0  0.50     -2648.5614   2.0000                                                             
     3  1  1.50     -2222.6006   6.0000                                                             
     3  2  2.50     -1726.3114  10.0000                                                             
     4  0  0.50      -538.6957   2.0000                                                             
     4  1  1.50      -399.0125   6.0000                                                             
     4  2  2.50      -220.3955  10.0000                                                             
     4  3  3.50       -23.0371  14.0000                                                             
     5  0  0.50       -71.2900   2.0000                                                             
     5  1  1.50       -37.8224   6.0000                                                             
     5  2  2.50        -2.6455   4.0000                                                             
     6  0  0.50        -4.9623   1.0000                                                             
     5  3  2.50        -1.3606   0.0000                                                             
   Description                                                                                      
     l       E           TYP  RCUT    TYP  RCUT                                                     
     1    -37.8224449     23  2.500                                                                 
     1      1.3605826     23  2.500                                                                 
     2     -2.6454718     23  2.500                                                                 
     2     -0.6258570     23  2.500                                                                 
     0     -4.9622674     23  2.500                                                                 
     0      4.7531427     23  2.500                                                                 
  local pseudopotential read in
  partial core-charges read in
  partial kinetic energy density read in
  atomic valenz-charges read in
  non local Contribution for L=           1  read in
    real space projection operators read in
  non local Contribution for L=           1  read in
    real space projection operators read in
  non local Contribution for L=           2  read in
    real space projection operators read in
  non local Contribution for L=           2  read in
    real space projection operators read in
  non local Contribution for L=           0  read in
    real space projection operators read in
  non local Contribution for L=           0  read in
    real space projection operators read in
    PAW grid and wavefunctions read in
 
   number of l-projection  operators is LMAX  =           6
   number of lm-projection operators is LMMAX =          18
 
 POTCAR:    PAW_PBE W_sv 04Sep2015                
   SHA256 =  931c2d770f65867ef30f3db3421922900fc0890ebac5c3e12f63b6a2064023d7 W_sv/POTCAR           
   COPYR  = (c) Copyright 04Sep2015 Georg Kresse                                                    
   COPYR  = This file is part of the software VASP. Any use, copying, and all other rights are regul
   COPYR  = If you do not have a valid VASP license, you may not use, copy or distribute this file. 
   VRHFIN =W : 5p6s5d                                                                               
   LEXCH  = PE                                                                                      
   EATOM  =  1865.5791 eV,  137.1162 Ry                                                             
                                                                                                    
   TITEL  = PAW_PBE W_sv 04Sep2015                                                                  
   LULTRA =        F    use ultrasoft PP ?                                                          
   IUNSCR =        1    unscreen: 0-lin 1-nonlin 2-no                                               
   RPACOR =    2.330    partial core radius                                                         
   POMASS =  183.850; ZVAL   =   14.000    mass and valenz                                          
   RCORE  =    2.500    outmost cutoff radius                                                       
   RWIGS  =    2.750; RWIGS  =    1.455    wigner-seitz radius (au A)                               
   ENMAX  =  223.057; ENMIN  =  167.293 eV                                                          
   ICORE  =        3    local potential                                                             
   LCOR   =        T    correct aug charges                                                         
   LPAW   =        T    paw PP                                                                      
   EAUG   =  373.438                                                                                
   DEXC   =    0.000                                                                                
   RMAX   =    2.565    core radius for proj-oper                                                   
   RAUG   =    1.300    factor for augmentation sphere                                              
   RDEP   =    2.539    radius for radial grids                                                     
   RDEPT  =    2.126    core radius for aug-charge                                                  
                                                                                                    
   Atomic configuration                                                                             
   15 entries                                                                                       
     n  l   j            E        occ.                                                              
     1  0  0.50    -69465.5834   2.0000                                                             
     2  0  0.50    -11986.2640   2.0000                                                             
     2  1  1.50    -10479.8613   6.0000                                                             
     3  0  0.50     -2759.0756   2.0000                                                             
     3  1  1.50     -2313.1855   6.0000                                                             
     3  2  2.50     -1801.1183  10.0000                                                             
     4  0  0.50      -567.6789   2.0000                                                             
     4  1  1.50      -421.4692   6.0000                                                             
     4  2  2.50      -236.3471  10.0000                                                             
     4  3  3.50       -31.2665  14.0000                                                             
     5  0  0.50       -77.1084   2.0000                                                             
     6  0  0.50        -5.1438   1.0000                                                             
     5  1  1.50       -41.3856   6.0000                                                             
     5  2  2.50        -3.3185   5.0000                                                             
     5  3  2.50        -1.3606   0.0000                                                             
   Description                                                                                      
     l       E           TYP  RCUT    TYP  RCUT                                                     
     0    -77.1084470     23  2.100                                                                 
     0     -5.1437956     23  2.300                                                                 
     1    -41.3855615     23  2.500                                                                 
     1     -2.7211652     23  2.500                                                                 
     2     -3.3185025     23  2.500                                                                 
     2     -1.5965151     23  2.500                                                                 
     3     -1.3605826     23  2.500                                                                 
  local pseudopotential read in
  partial core-charges read in
  partial kinetic energy density read in
  kinetic energy density of atom read in
  atomic valenz-charges read in
  non local Contribution for L=           0  read in
    real space projection operators read in
  non local Contribution for L=           0  read in
    real space projection operators read in
  non local Contribution for L=           1  read in
    real space projection operators read in
  non local Contribution for L=           1  read in
    real space projection operators read in
  non local Contribution for L=           2  read in
    real space projection operators read in
  non local Contribution for L=           2  read in
    real space projection operators read in
    PAW grid and wavefunctions read in
 
   number of l-projection  operators is LMAX  =           6
   number of lm-projection operators is LMMAX =          18
 
  PAW_PBE Nb_sv 25May2007               :
 energy of atom  1       EATOM=-1555.1913
 kinetic energy error for atom=    0.2155 (will be added to EATOM!!)
  PAW_PBE Mo_sv 02Feb2006               :
 energy of atom  2       EATOM=-1862.2866
 kinetic energy error for atom=    0.1102 (will be added to EATOM!!)
  PAW_PBE Ta_pv 07Sep2000               :
 energy of atom  3       EATOM=-1047.1984
 kinetic energy error for atom=    0.0394 (will be added to EATOM!!)
  PAW_PBE W_sv 04Sep2015                :
 energy of atom  4       EATOM=-1865.5791
 kinetic energy error for atom=    0.0589 (will be added to EATOM!!)
 
 
 POSCAR: Nb-Mo-Ta-W alloy
  positions in direct lattice
  No initial velocities read in
 exchange correlation table for  LEXCH =        8
   RHO(1)=    0.500       N(1)  =     2000
   RHO(2)=  100.500       N(2)  =     4000
 


--------------------------------------------------------------------------------------------------------


 ion  position               nearest neighbor table
   1  0.750  0.250  0.250-   2 2.85   3 2.85   4 2.85   7 2.85   8 2.85  12 2.85  13 2.85  16 2.85

   2  0.000  0.500  0.000-   1 2.85   5 2.85   6 2.85   9 2.85  10 2.85  11 2.85  14 2.85  15 2.85

   3  0.500  0.500  0.000-   1 2.85   5 2.85   6 2.85   9 2.85  10 2.85  11 2.85  14 2.85  15 2.85
                            13 3.29  13 3.29
   4  0.000  0.000  0.500-   1 2.85   5 2.85   6 2.85   9 2.85  10 2.85  11 2.85  14 2.85  15 2.85

   5  0.250  0.250  0.250-   2 2.85   3 2.85   4 2.85   7 2.85   8 2.85  12 2.85  13 2.85  16 2.85

   6  0.750  0.250  0.750-   2 2.85   3 2.85   4 2.85   7 2.85   8 2.85  12 2.85  13 2.85  16 2.85

   7  0.500  0.000  0.500-   1 2.85   5 2.85   6 2.85   9 2.85  10 2.85  11 2.85  14 2.85  15 2.85
                            13 3.29  13 3.29
   8  0.000  0.000  0.000-   1 2.85   5 2.85   6 2.85   9 2.85  10 2.85  11 2.85  14 2.85  15 2.85

   9  0.250  0.750  0.750-   2 2.85   3 2.85   4 2.85   7 2.85   8 2.85  12 2.85  13 2.85  16 2.85
                            11 3.29  15 3.29  10 3.29  15 3.29  10 3.29  11 3.29
  10  0.250  0.250  0.750-   2 2.85   3 2.85   4 2.85   7 2.85   8 2.85  12 2.85  13 2.85  16 2.85
                             9 3.29   9 3.29
  11  0.750  0.750  0.750-   2 2.85   3 2.85   4 2.85   7 2.85   8 2.85  12 2.85  13 2.85  16 2.85
                            14 3.29   9 3.29  14 3.29   9 3.29
  12  0.500  0.000  0.000-   1 2.85   5 2.85   6 2.85   9 2.85  10 2.85  11 2.85  14 2.85  15 2.85

  13  0.500  0.500  0.500-   1 2.85   5 2.85   6 2.85   9 2.85  10 2.85  11 2.85  14 2.85  15 2.85
                             7 3.29   3 3.29  16 3.29   3 3.29   7 3.29  16 3.29
  14  0.750  0.750  0.250-   2 2.85   3 2.85   4 2.85   7 2.85   8 2.85  12 2.85  13 2.85  16 2.85
                            15 3.29  11 3.29  11 3.29  15 3.29
  15  0.250  0.750  0.250-   2 2.85   3 2.85   4 2.85   7 2.85   8 2.85  12 2.85  13 2.85  16 2.85
                            14 3.29   9 3.29   9 3.29  14 3.29
  16  0.000  0.500  0.500-   1 2.85   5 2.85   6 2.85   9 2.85  10 2.85  11 2.85  14 2.85  15 2.85
                            13 3.29  13 3.29
 
  LATTYP: Found a simple cubic cell.
 ALAT       =     6.5800000000
  
  Lattice vectors:
  
 A1 = (   6.5800000000,   0.0000000000,   0.0000000000)
 A2 = (   0.0000000000,   6.5800000000,   0.0000000000)
 A3 = (   0.0000000000,   0.0000000000,   6.5800000000)


Analysis of symmetry for initial positions (statically):
=====================================================================
 Subroutine PRICEL returns:
 Original cell was already a primitive cell.
 

 Routine SETGRP: Setting up the symmetry group for a 
 simple cubic supercell.


 Subroutine GETGRP returns: Found  1 space group operations
 (whereof  1 operations were pure point group operations)
 out of a pool of 48 trial point group operations.


The static configuration has the point symmetry C_1 .


Analysis of symmetry for dynamics (positions and initial velocities):
=====================================================================
 Subroutine PRICEL returns:
 Original cell was already a primitive cell.
 

 Routine SETGRP: Setting up the symmetry group for a 
 simple cubic supercell.


 Subroutine GETGRP returns: Found  1 space group operations
 (whereof  1 operations were pure point group operations)
 out of a pool of 48 trial point group operations.


The dynamic configuration has the point symmetry C_1 .


 Subroutine INISYM returns: Found  1 space group operations
 (whereof  1 operations are pure point group operations),
 and found     1 'primitive' translations


----------------------------------------------------------------------------------------

                                     Primitive cell                                     

  volume of cell :     284.8903

  direct lattice vectors                    reciprocal lattice vectors
     6.580000000  0.000000000  0.000000000     0.151975684  0.000000000  0.000000000
     0.000000000  6.580000000  0.000000000     0.000000000  0.151975684  0.000000000
     0.000000000  0.000000000  6.580000000     0.000000000  0.000000000  0.151975684

  length of vectors
     6.580000000  6.580000000  6.580000000     0.151975684  0.151975684  0.151975684

  position of ions in fractional coordinates (direct lattice)
     0.750000000  0.250000000  0.250000000
     0.000000000  0.500000000  0.000000000
     0.500000000  0.500000000  0.000000000
     0.000000000  0.000000000  0.500000000
     0.250000000  0.250000000  0.250000000
     0.750000000  0.250000000  0.750000000
     0.500000000  0.000000000  0.500000000
     0.000000000  0.000000000  0.000000000
     0.250000000  0.750000000  0.750000000
     0.250000000  0.250000000  0.750000000
     0.750000000  0.750000000  0.750000000
     0.500000000  0.000000000  0.000000000
     0.500000000  0.500000000  0.500000000
     0.750000000  0.750000000  0.250000000
     0.250000000  0.750000000  0.250000000
     0.000000000  0.500000000  0.500000000

  ion indices of the primitive-cell ions
   primitive index   ion index
                 1           1
                 2           2
                 3           3
                 4           4
                 5           5
                 6           6
                 7           7
                 8           8
                 9           9
                10          10
                11          11
                12          12
                13          13
                14          14
                15          15
                16          16

----------------------------------------------------------------------------------------

 
 
 KPOINTS: K-Spacing Value to Generate K-Mesh: 0.03

Automatic generation of k-mesh.
 Grid dimensions read from file:
 generate k-points for:    5    5    5

 Generating k-lattice:

  Cartesian coordinates                     Fractional coordinates (reciprocal lattice)
     0.030395137  0.000000000  0.000000000     0.200000000  0.000000000  0.000000000
     0.000000000  0.030395137  0.000000000     0.000000000  0.200000000  0.000000000
     0.000000000  0.000000000  0.030395137     0.000000000  0.000000000  0.200000000

  Length of vectors
     0.030395137  0.030395137  0.030395137

  Shift w.r.t. Gamma in fractional coordinates (k-lattice)
     0.000000000  0.000000000  0.000000000

 
 Subroutine IBZKPT returns following result:
 ===========================================
 
 Found     63 irreducible k-points:
 
 Following reciprocal coordinates:
            Coordinates               Weight
  0.000000  0.000000  0.000000      1.000000
  0.200000  0.000000  0.000000      2.000000
  0.000000  0.200000  0.000000      2.000000
  0.000000  0.000000  0.200000      2.000000
  0.400000  0.000000  0.000000      2.000000
  0.000000  0.400000  0.000000      2.000000
  0.000000  0.000000  0.400000      2.000000
  0.200000  0.200000  0.000000      2.000000
  0.000000  0.200000  0.200000      2.000000
  0.200000  0.000000  0.200000      2.000000
 -0.200000  0.200000  0.000000      2.000000
 -0.200000  0.000000  0.200000      2.000000
  0.000000 -0.200000  0.200000      2.000000
  0.400000  0.200000  0.000000      2.000000
  0.000000  0.400000  0.200000      2.000000
  0.200000  0.000000  0.400000      2.000000
 -0.200000  0.400000  0.000000      2.000000
 -0.400000  0.000000  0.200000      2.000000
  0.000000  0.200000  0.400000      2.000000
  0.000000 -0.400000  0.200000      2.000000
 -0.200000  0.000000  0.400000      2.000000
  0.400000  0.000000  0.200000      2.000000
  0.000000 -0.200000  0.400000      2.000000
  0.400000 -0.200000  0.000000      2.000000
  0.200000  0.400000  0.000000      2.000000
  0.400000  0.400000  0.000000      2.000000
  0.000000  0.400000  0.400000      2.000000
  0.400000  0.000000  0.400000      2.000000
 -0.400000  0.400000  0.000000      2.000000
 -0.400000  0.000000  0.400000      2.000000
  0.000000 -0.400000  0.400000      2.000000
  0.200000  0.200000  0.200000      2.000000
 -0.200000  0.200000  0.200000      2.000000
 -0.200000 -0.200000  0.200000      2.000000
  0.200000 -0.200000  0.200000      2.000000
  0.400000  0.200000  0.200000      2.000000
  0.200000  0.400000  0.200000      2.000000
  0.200000  0.200000  0.400000      2.000000
 -0.200000  0.400000  0.200000      2.000000
 -0.400000  0.200000  0.200000      2.000000
 -0.200000  0.200000  0.400000      2.000000
 -0.400000 -0.200000  0.200000      2.000000
 -0.200000 -0.400000  0.200000      2.000000
 -0.200000 -0.200000  0.400000      2.000000
  0.200000 -0.400000  0.200000      2.000000
  0.400000 -0.200000  0.200000      2.000000
  0.200000 -0.200000  0.400000      2.000000
  0.400000  0.400000  0.200000      2.000000
  0.200000  0.400000  0.400000      2.000000
  0.400000  0.200000  0.400000      2.000000
 -0.400000  0.400000  0.200000      2.000000
 -0.400000  0.200000  0.400000      2.000000
 -0.200000  0.400000  0.400000      2.000000
 -0.400000 -0.400000  0.200000      2.000000
 -0.200000 -0.400000  0.400000      2.000000
 -0.400000 -0.200000  0.400000      2.000000
  0.400000 -0.400000  0.200000      2.000000
  0.400000 -0.200000  0.400000      2.000000
  0.200000 -0.400000  0.400000      2.000000
  0.400000  0.400000  0.400000      2.000000
 -0.400000  0.400000  0.400000      2.000000
 -0.400000 -0.400000  0.400000      2.000000
  0.400000 -0.400000  0.400000      2.000000
 
 Following cartesian coordinates:
            Coordinates               Weight
  0.000000  0.000000  0.000000      1.000000
  0.030395  0.000000  0.000000      2.000000
  0.000000  0.030395  0.000000      2.000000
  0.000000  0.000000  0.030395      2.000000
  0.060790  0.000000  0.000000      2.000000
  0.000000  0.060790  0.000000      2.000000
  0.000000  0.000000  0.060790      2.000000
  0.030395  0.030395  0.000000      2.000000
  0.000000  0.030395  0.030395      2.000000
  0.030395  0.000000  0.030395      2.000000
 -0.030395  0.030395  0.000000      2.000000
 -0.030395  0.000000  0.030395      2.000000
  0.000000 -0.030395  0.030395      2.000000
  0.060790  0.030395  0.000000      2.000000
  0.000000  0.060790  0.030395      2.000000
  0.030395  0.000000  0.060790      2.000000
 -0.030395  0.060790  0.000000      2.000000
 -0.060790  0.000000  0.030395      2.000000
  0.000000  0.030395  0.060790      2.000000
  0.000000 -0.060790  0.030395      2.000000
 -0.030395  0.000000  0.060790      2.000000
  0.060790  0.000000  0.030395      2.000000
  0.000000 -0.030395  0.060790      2.000000
  0.060790 -0.030395  0.000000      2.000000
  0.030395  0.060790  0.000000      2.000000
  0.060790  0.060790  0.000000      2.000000
  0.000000  0.060790  0.060790      2.000000
  0.060790  0.000000  0.060790      2.000000
 -0.060790  0.060790  0.000000      2.000000
 -0.060790  0.000000  0.060790      2.000000
  0.000000 -0.060790  0.060790      2.000000
  0.030395  0.030395  0.030395      2.000000
 -0.030395  0.030395  0.030395      2.000000
 -0.030395 -0.030395  0.030395      2.000000
  0.030395 -0.030395  0.030395      2.000000
  0.060790  0.030395  0.030395      2.000000
  0.030395  0.060790  0.030395      2.000000
  0.030395  0.030395  0.060790      2.000000
 -0.030395  0.060790  0.030395      2.000000
 -0.060790  0.030395  0.030395      2.000000
 -0.030395  0.030395  0.060790      2.000000
 -0.060790 -0.030395  0.030395      2.000000
 -0.030395 -0.060790  0.030395      2.000000
 -0.030395 -0.030395  0.060790      2.000000
  0.030395 -0.060790  0.030395      2.000000
  0.060790 -0.030395  0.030395      2.000000
  0.030395 -0.030395  0.060790      2.000000
  0.060790  0.060790  0.030395      2.000000
  0.030395  0.060790  0.060790      2.000000
  0.060790  0.030395  0.060790      2.000000
 -0.060790  0.060790  0.030395      2.000000
 -0.060790  0.030395  0.060790      2.000000
 -0.030395  0.060790  0.060790      2.000000
 -0.060790 -0.060790  0.030395      2.000000
 -0.030395 -0.060790  0.060790      2.000000
 -0.060790 -0.030395  0.060790      2.000000
  0.060790 -0.060790  0.030395      2.000000
  0.060790 -0.030395  0.060790      2.000000
  0.030395 -0.060790  0.060790      2.000000
  0.060790  0.060790  0.060790      2.000000
 -0.060790  0.060790  0.060790      2.000000
 -0.060790 -0.060790  0.060790      2.000000
  0.060790 -0.060790  0.060790      2.000000
 


--------------------------------------------------------------------------------------------------------




 Dimension of arrays:
   k-points           NKPTS =     63   k-points in BZ     NKDIM =     63   number of bands    NBANDS=    128
   number of dos      NEDOS =    301   number of ions     NIONS =     16
   non local maximal  LDIM  =      6   non local SUM 2l+1 LMDIM =     18
   total plane-waves  NPLWV =  46656
   max r-space proj   IRMAX =      1   max aug-charges    IRDMAX=   9546
   dimension x,y,z NGX =    36 NGY =   36 NGZ =   36
   dimension x,y,z NGXF=    72 NGYF=   72 NGZF=   72
   support grid    NGXF=    72 NGYF=   72 NGZF=   72
   ions per type =               8   4   1   3
   NGX,Y,Z   is equivalent  to a cutoff of   9.10,  9.10,  9.10 a.u.
   NGXF,Y,Z  is equivalent  to a cutoff of  18.19, 18.19, 18.19 a.u.

 SYSTEM =  unknown system                          
 POSCAR =  Nb-Mo-Ta-W alloy                        

 Startparameter for this run:
   NWRITE =      2    write-flag & timer
   PREC   = accura    normal or accurate (medium, high low for compatibility)
   ISTART =      0    job   : 0-new  1-cont  2-samecut
   ICHARG =      2    charge: 1-file 2-atom 10-const
   ISPIN  =      1    spin polarized calculation?
   LNONCOLLINEAR =      F non collinear calculations
   LSORBIT =      F    spin-orbit coupling
   INIWAV =      1    electr: 0-lowe 1-rand  2-diag
   LASPH  =      F    aspherical Exc in radial PAW
 Electronic Relaxation 1
   ENCUT  =  250.0 eV  18.37 Ry    4.29 a.u.   8.48  8.48  8.48*2*pi/ulx,y,z
   ENINI  =  250.0     initial cutoff
   ENAUG  =  455.7 eV  augmentation charge cutoff
   NELM   =     80;   NELMIN=  2; NELMDL= -5     # of ELM steps 
   EDIFF  = 0.1E-07   stopping-criterion for ELM
   LREAL  =      F    real-space projection
   NLSPLINE    = F    spline interpolate recip. space projectors
   LCOMPAT=      F    compatible to vasp.4.4
   GGA_COMPAT  = T    GGA compatible to vasp.4.4-vasp.4.6
   LMAXPAW     = -100 max onsite density
   LMAXMIX     =    2 max onsite mixed and CHGCAR
   VOSKOWN=      0    Vosko Wilk Nusair interpolation
   ROPT   =    0.00000   0.00000   0.00000   0.00000
 Ionic relaxation
   EDIFFG = -.1E-01   stopping-criterion for IOM
   NSW    =      0    number of steps for IOM
   NBLOCK =      1;   KBLOCK =      1    inner block; outer block 
   IBRION =     -1    ionic relax: 0-MD 1-quasi-New 2-CG
   NFREE  =      0    steps in history (QN), initial steepest desc. (CG)
   ISIF   =      2    stress and relaxation
   IWAVPR =     10    prediction:  0-non 1-charg 2-wave 3-comb
   ISYM   =      2    0-nonsym 1-usesym 2-fastsym
   LCORR  =      T    Harris-Foulkes like correction to forces

   POTIM  = 0.5000    time-step for ionic-motion
   TEIN   =    0.0    initial temperature
   TEBEG  =    0.0;   TEEND  =   0.0 temperature during run
   SMASS  =  -3.00    Nose mass-parameter (am)
   estimated Nose-frequenzy (Omega)   =  0.10E-29 period in steps = 0.13E+47 mass=  -0.989E-27a.u.
   SCALEE = 1.0000    scale energy and forces
   NPACO  =    256;   APACO  = 10.0  distance and # of slots for P.C.
   PSTRESS=    0.0 pullay stress

  Mass of Ions in am
   POMASS =  92.91 95.94180.95183.85
  Ionic Valenz
   ZVAL   =  13.00 14.00 11.00 14.00
  Atomic Wigner-Seitz radii
   RWIGS  =  -1.00 -1.00 -1.00 -1.00
  virtual crystal weights 
   VCA    =   1.00  1.00  1.00  1.00
   NELECT =     213.0000    total number of electrons
   NUPDOWN=      -1.0000    fix difference up-down

 DOS related values:
   EMIN   =  10.00;   EMAX   =-10.00  energy-range for DOS
   EFERMI =   0.00
   ISMEAR =     0;   SIGMA  =   0.02  broadening in eV -4-tet -1-fermi 0-gaus

 Electronic relaxation 2 (details)
   IALGO  =     38    algorithm
   LDIAG  =      T    sub-space diagonalisation (order eigenvalues)
   LSUBROT=      F    optimize rotation matrix (better conditioning)
   TURBO    =      0    0=normal 1=particle mesh
   IRESTART =      0    0=no restart 2=restart with 2 vectors
   NREBOOT  =      0    no. of reboots
   NMIN     =      0    reboot dimension
   EREF     =   0.00    reference energy to select bands
   IMIX   =      4    mixing-type and parameters
     AMIX     =   0.40;   BMIX     =  1.00
     AMIX_MAG =   1.60;   BMIX_MAG =  1.00
     AMIN     =   0.10
     WC   =   100.;   INIMIX=   1;  MIXPRE=   1;  MAXMIX= -45

 Intra band minimization:
   WEIMIN = 0.0000     energy-eigenvalue tresh-hold
   EBREAK =  0.20E-10  absolut break condition
   DEPER  =   0.30     relativ break condition  

   TIME   =   0.40     timestep for ELM

  volume/ion in A,a.u.               =      17.81       120.16
  Fermi-wavevector in a.u.,A,eV,Ry     =   1.485852  2.807853 30.038335  2.207755
  Thomas-Fermi vector in A             =   2.599212
 
 Write flags
   LWAVE        =      F    write WAVECAR
   LDOWNSAMPLE  =      F    k-point downsampling of WAVECAR
   LCHARG       =      F    write CHGCAR
   LVTOT        =      F    write LOCPOT, total local potential
   LVHAR        =      F    write LOCPOT, Hartree potential only
   LELF         =      F    write electronic localiz. function (ELF)
   LORBIT       =      0    0 simple, 1 ext, 2 COOP (PROOUT), +10 PAW based schemes


 Dipole corrections
   LMONO  =      F    monopole corrections only (constant potential shift)
   LDIPOL =      F    correct potential (dipole corrections)
   IDIPOL =      0    1-x, 2-y, 3-z, 4-all directions 
   EPSILON=  1.0000000 bulk dielectric constant

 Core level calculations are selected ICORELEVEL =  1
 Exchange correlation treatment:
   GGA     =    PE    GGA type
   LEXCH   =     8    internal setting for exchange type
   LIBXC   =     F    Libxc                    
   VOSKOWN =     0    Vosko Wilk Nusair interpolation
   LHFCALC =     F    Hartree Fock is set to
   LHFONE  =     F    Hartree Fock one center treatment
   AEXX    =    0.0000 exact exchange contribution

 Linear response parameters
   LEPSILON=     F    determine dielectric tensor
   LRPA    =     F    only Hartree local field effects (RPA)
   LNABLA  =     F    use nabla operator in PAW spheres
   LVEL    =     F    velocity operator in full k-point grid
   CSHIFT  =0.1000    complex shift for real part using Kramers Kronig
   OMEGAMAX=  -1.0    maximum frequency
   DEG_THRESHOLD= 0.2000000E-02 threshold for treating states as degnerate
   RTIME   =   -0.100 relaxation time in fs
  (WPLASMAI=    0.000 imaginary part of plasma frequency in eV, 0.658/RTIME)
   DFIELD  = 0.0000000 0.0000000 0.0000000 field for delta impulse in time
 
  Optional k-point grid parameters
   LKPOINTS_OPT  =     F    use optional k-point grid
   KPOINTS_OPT_MODE=     1    mode for optional k-point grid
 
 Orbital magnetization related:
   ORBITALMAG=     F  switch on orbital magnetization
   LCHIMAG   =     F  perturbation theory with respect to B field
   DQ        =  0.001000  dq finite difference perturbation B field
   LLRAUG    =     F  two centre corrections for induced B field



--------------------------------------------------------------------------------------------------------


 Static calculation
 charge density and potential will be updated during run
 non-spin polarized calculation
 Variant of blocked Davidson
 Davidson routine will perform the subspace rotation
 perform sub-space diagonalisation
    after iterative eigenvector-optimisation
 modified Broyden-mixing scheme, WC =      100.0
 initial mixing is a Kerker type mixing with AMIX =  0.4000 and BMIX =      1.0000
 Hartree-type preconditioning will be used
 using additional bands           21
 reciprocal scheme for non local part
 use partial core corrections
 calculate Harris-corrections to forces 
   (improved forces if not selfconsistent)
 use gradient corrections 
 use of overlap-Matrix (Vanderbilt PP)
 Gauss-broadening in eV      SIGMA  =   0.02


--------------------------------------------------------------------------------------------------------


  energy-cutoff  :      250.00
  volume of cell :      284.89
      direct lattice vectors                 reciprocal lattice vectors
     6.580000000  0.000000000  0.000000000     0.151975684  0.000000000  0.000000000
     0.000000000  6.580000000  0.000000000     0.000000000  0.151975684  0.000000000
     0.000000000  0.000000000  6.580000000     0.000000000  0.000000000  0.151975684

  length of vectors
     6.580000000  6.580000000  6.580000000     0.151975684  0.151975684  0.151975684


 
 k-points in units of 2pi/SCALE and weight: K-Spacing Value to Generate K-Mesh: 0.03
   0.00000000  0.00000000  0.00000000       0.008
   0.03039514  0.00000000  0.00000000       0.016
   0.00000000  0.03039514  0.00000000       0.016
   0.00000000  0.00000000  0.03039514       0.016
   0.06079027  0.00000000  0.00000000       0.016
   0.00000000  0.06079027  0.00000000       0.016
   0.00000000  0.00000000  0.06079027       0.016
   0.03039514  0.03039514  0.00000000       0.016
   0.00000000  0.03039514  0.03039514       0.016
   0.03039514  0.00000000  0.03039514       0.016
  -0.03039514  0.03039514  0.00000000       0.016
  -0.03039514  0.00000000  0.03039514       0.016
   0.00000000 -0.03039514  0.03039514       0.016
   0.06079027  0.03039514  0.00000000       0.016
   0.00000000  0.06079027  0.03039514       0.016
   0.03039514  0.00000000  0.06079027       0.016
  -0.03039514  0.06079027  0.00000000       0.016
  -0.06079027  0.00000000  0.03039514       0.016
   0.00000000  0.03039514  0.06079027       0.016
   0.00000000 -0.06079027  0.03039514       0.016
  -0.03039514  0.00000000  0.06079027       0.016
   0.06079027  0.00000000  0.03039514       0.016
   0.00000000 -0.03039514  0.06079027       0.016
   0.06079027 -0.03039514  0.00000000       0.016
   0.03039514  0.06079027  0.00000000       0.016
   0.06079027  0.06079027  0.00000000       0.016
   0.00000000  0.06079027  0.06079027       0.016
   0.06079027  0.00000000  0.06079027       0.016
  -0.06079027  0.06079027  0.00000000       0.016
  -0.06079027  0.00000000  0.06079027       0.016
   0.00000000 -0.06079027  0.06079027       0.016
   0.03039514  0.03039514  0.03039514       0.016
  -0.03039514  0.03039514  0.03039514       0.016
  -0.03039514 -0.03039514  0.03039514       0.016
   0.03039514 -0.03039514  0.03039514       0.016
   0.06079027  0.03039514  0.03039514       0.016
   0.03039514  0.06079027  0.03039514       0.016
   0.03039514  0.03039514  0.06079027       0.016
  -0.03039514  0.06079027  0.03039514       0.016
  -0.06079027  0.03039514  0.03039514       0.016
  -0.03039514  0.03039514  0.06079027       0.016
  -0.06079027 -0.03039514  0.03039514       0.016
  -0.03039514 -0.06079027  0.03039514       0.016
  -0.03039514 -0.03039514  0.06079027       0.016
   0.03039514 -0.06079027  0.03039514       0.016
   0.06079027 -0.03039514  0.03039514       0.016
   0.03039514 -0.03039514  0.06079027       0.016
   0.06079027  0.06079027  0.03039514       0.016
   0.03039514  0.06079027  0.06079027       0.016
   0.06079027  0.03039514  0.06079027       0.016
  -0.06079027  0.06079027  0.03039514       0.016
  -0.06079027  0.03039514  0.06079027       0.016
  -0.03039514  0.06079027  0.06079027       0.016
  -0.06079027 -0.06079027  0.03039514       0.016
  -0.03039514 -0.06079027  0.06079027       0.016
  -0.06079027 -0.03039514  0.06079027       0.016
   0.06079027 -0.06079027  0.03039514       0.016
   0.06079027 -0.03039514  0.06079027       0.016
   0.03039514 -0.06079027  0.06079027       0.016
   0.06079027  0.06079027  0.06079027       0.016
  -0.06079027  0.06079027  0.06079027       0.016
  -0.06079027 -0.06079027  0.06079027       0.016
   0.06079027 -0.06079027  0.06079027       0.016
 
 k-points in reciprocal lattice and weights: K-Spacing Value to Generate K-Mesh: 0.03
   0.00000000  0.00000000  0.00000000       0.008
   0.20000000  0.00000000  0.00000000       0.016
   0.00000000  0.20000000  0.00000000       0.016
   0.00000000  0.00000000  0.20000000       0.016
   0.40000000  0.00000000  0.00000000       0.016
   0.00000000  0.40000000  0.00000000       0.016
   0.00000000  0.00000000  0.40000000       0.016
   0.20000000  0.20000000  0.00000000       0.016
   0.00000000  0.20000000  0.20000000       0.016
   0.20000000  0.00000000  0.20000000       0.016
  -0.20000000  0.20000000  0.00000000       0.016
  -0.20000000  0.00000000  0.20000000       0.016
   0.00000000 -0.20000000  0.20000000       0.016
   0.40000000  0.20000000  0.00000000       0.016
   0.00000000  0.40000000  0.20000000       0.016
   0.20000000  0.00000000  0.40000000       0.016
  -0.20000000  0.40000000  0.00000000       0.016
  -0.40000000  0.00000000  0.20000000       0.016
   0.00000000  0.20000000  0.40000000       0.016
   0.00000000 -0.40000000  0.20000000       0.016
  -0.20000000  0.00000000  0.40000000       0.016
   0.40000000  0.00000000  0.20000000       0.016
   0.00000000 -0.20000000  0.40000000       0.016
   0.40000000 -0.20000000  0.00000000       0.016
   0.20000000  0.40000000  0.00000000       0.016
   0.40000000  0.40000000  0.00000000       0.016
   0.00000000  0.40000000  0.40000000       0.016
   0.40000000  0.00000000  0.40000000       0.016
  -0.40000000  0.40000000  0.00000000       0.016
  -0.40000000  0.00000000  0.40000000       0.016
   0.00000000 -0.40000000  0.40000000       0.016
   0.20000000  0.20000000  0.20000000       0.016
  -0.20000000  0.20000000  0.20000000       0.016
  -0.20000000 -0.20000000  0.20000000       0.016
   0.20000000 -0.20000000  0.20000000       0.016
   0.40000000  0.20000000  0.20000000       0.016
   0.20000000  0.40000000  0.20000000       0.016
   0.20000000  0.20000000  0.40000000       0.016
  -0.20000000  0.40000000  0.20000000       0.016
  -0.40000000  0.20000000  0.20000000       0.016
  -0.20000000  0.20000000  0.40000000       0.016
  -0.40000000 -0.20000000  0.20000000       0.016
  -0.20000000 -0.40000000  0.20000000       0.016
  -0.20000000 -0.20000000  0.40000000       0.016
   0.20000000 -0.40000000  0.20000000       0.016
   0.40000000 -0.20000000  0.20000000       0.016
   0.20000000 -0.20000000  0.40000000       0.016
   0.40000000  0.40000000  0.20000000       0.016
   0.20000000  0.40000000  0.40000000       0.016
   0.40000000  0.20000000  0.40000000       0.016
  -0.40000000  0.40000000  0.20000000       0.016
  -0.40000000  0.20000000  0.40000000       0.016
  -0.20000000  0.40000000  0.40000000       0.016
  -0.40000000 -0.40000000  0.20000000       0.016
  -0.20000000 -0.40000000  0.40000000       0.016
  -0.40000000 -0.20000000  0.40000000       0.016
   0.40000000 -0.40000000  0.20000000       0.016
   0.40000000 -0.20000000  0.40000000       0.016
   0.20000000 -0.40000000  0.40000000       0.016
   0.40000000  0.40000000  0.40000000       0.016
  -0.40000000  0.40000000  0.40000000       0.016
  -0.40000000 -0.40000000  0.40000000       0.016
   0.40000000 -0.40000000  0.40000000       0.016
 
 position of ions in fractional coordinates (direct lattice) 
   0.75000000  0.25000000  0.25000000
   0.00000000  0.50000000  0.00000000
   0.50000000  0.50000000  0.00000000
   0.00000000  0.00000000  0.50000000
   0.25000000  0.25000000  0.25000000
   0.75000000  0.25000000  0.75000000
   0.50000000  0.00000000  0.50000000
   0.00000000  0.00000000  0.00000000
   0.25000000  0.75000000  0.75000000
   0.25000000  0.25000000  0.75000000
   0.75000000  0.75000000  0.75000000
   0.50000000  0.00000000  0.00000000
   0.50000000  0.50000000  0.50000000
   0.75000000  0.75000000  0.25000000
   0.25000000  0.75000000  0.25000000
   0.00000000  0.50000000  0.50000000
 
 position of ions in cartesian coordinates  (Angst):
   4.93500000  1.64500000  1.64500000
   0.00000000  3.29000000  0.00000000
   3.29000000  3.29000000  0.00000000
   0.00000000  0.00000000  3.29000000
   1.64500000  1.64500000  1.64500000
   4.93500000  1.64500000  4.93500000
   3.29000000  0.00000000  3.29000000
   0.00000000  0.00000000  0.00000000
   1.64500000  4.93500000  4.93500000
   1.64500000  1.64500000  4.93500000
   4.93500000  4.93500000  4.93500000
   3.29000000  0.00000000  0.00000000
   3.29000000  3.29000000  3.29000000
   4.93500000  4.93500000  1.64500000
   1.64500000  4.93500000  1.64500000
   0.00000000  3.29000000  3.29000000
 


--------------------------------------------------------------------------------------------------------


 k-point   1 :   0.0000 0.0000 0.0000  plane waves:    2517
 k-point   2 :   0.2000 0.0000 0.0000  plane waves:    2545
 k-point   3 :   0.0000 0.2000 0.0000  plane waves:    2545
 k-point   4 :   0.0000 0.0000 0.2000  plane waves:    2545
 k-point   5 :   0.4000 0.0000 0.0000  plane waves:    2569
 k-point   6 :   0.0000 0.4000 0.0000  plane waves:    2569
 k-point   7 :   0.0000 0.0000 0.4000  plane waves:    2569
 k-point   8 :   0.2000 0.2000 0.0000  plane waves:    2562
 k-point   9 :   0.0000 0.2000 0.2000  plane waves:    2562
 k-point  10 :   0.2000 0.0000 0.2000  plane waves:    2562
 k-point  11 :  -0.2000 0.2000 0.0000  plane waves:    2562
 k-point  12 :  -0.2000 0.0000 0.2000  plane waves:    2562
 k-point  13 :   0.0000-0.2000 0.2000  plane waves:    2562
 k-point  14 :   0.4000 0.2000 0.0000  plane waves:    2566
 k-point  15 :   0.0000 0.4000 0.2000  plane waves:    2566
 k-point  16 :   0.2000 0.0000 0.4000  plane waves:    2566
 k-point  17 :  -0.2000 0.4000 0.0000  plane waves:    2566
 k-point  18 :  -0.4000 0.0000 0.2000  plane waves:    2566
 k-point  19 :   0.0000 0.2000 0.4000  plane waves:    2566
 k-point  20 :   0.0000-0.4000 0.2000  plane waves:    2566
 k-point  21 :  -0.2000 0.0000 0.4000  plane waves:    2566
 k-point  22 :   0.4000 0.0000 0.2000  plane waves:    2566
 k-point  23 :   0.0000-0.2000 0.4000  plane waves:    2566
 k-point  24 :   0.4000-0.2000 0.0000  plane waves:    2566
 k-point  25 :   0.2000 0.4000 0.0000  plane waves:    2566
 k-point  26 :   0.4000 0.4000 0.0000  plane waves:    2570
 k-point  27 :   0.0000 0.4000 0.4000  plane waves:    2570
 k-point  28 :   0.4000 0.0000 0.4000  plane waves:    2570
 k-point  29 :  -0.4000 0.4000 0.0000  plane waves:    2570
 k-point  30 :  -0.4000 0.0000 0.4000  plane waves:    2570
 k-point  31 :   0.0000-0.4000 0.4000  plane waves:    2570
 k-point  32 :   0.2000 0.2000 0.2000  plane waves:    2572
 k-point  33 :  -0.2000 0.2000 0.2000  plane waves:    2572
 k-point  34 :  -0.2000-0.2000 0.2000  plane waves:    2572
 k-point  35 :   0.2000-0.2000 0.2000  plane waves:    2572
 k-point  36 :   0.4000 0.2000 0.2000  plane waves:    2546
 k-point  37 :   0.2000 0.4000 0.2000  plane waves:    2546
 k-point  38 :   0.2000 0.2000 0.4000  plane waves:    2546
 k-point  39 :  -0.2000 0.4000 0.2000  plane waves:    2546
 k-point  40 :  -0.4000 0.2000 0.2000  plane waves:    2546
 k-point  41 :  -0.2000 0.2000 0.4000  plane waves:    2546
 k-point  42 :  -0.4000-0.2000 0.2000  plane waves:    2546
 k-point  43 :  -0.2000-0.4000 0.2000  plane waves:    2546
 k-point  44 :  -0.2000-0.2000 0.4000  plane waves:    2546
 k-point  45 :   0.2000-0.4000 0.2000  plane waves:    2546
 k-point  46 :   0.4000-0.2000 0.2000  plane waves:    2546
 k-point  47 :   0.2000-0.2000 0.4000  plane waves:    2546
 k-point  48 :   0.4000 0.4000 0.2000  plane waves:    2549
 k-point  49 :   0.2000 0.4000 0.4000  plane waves:    2549
 k-point  50 :   0.4000 0.2000 0.4000  plane waves:    2549
 k-point  51 :  -0.4000 0.4000 0.2000  plane waves:    2549
 k-point  52 :  -0.4000 0.2000 0.4000  plane waves:    2549
 k-point  53 :  -0.2000 0.4000 0.4000  plane waves:    2549
 k-point  54 :  -0.4000-0.4000 0.2000  plane waves:    2549
 k-point  55 :  -0.2000-0.4000 0.4000  plane waves:    2549
 k-point  56 :  -0.4000-0.2000 0.4000  plane waves:    2549
 k-point  57 :   0.4000-0.4000 0.2000  plane waves:    2549
 k-point  58 :   0.4000-0.2000 0.4000  plane waves:    2549
 k-point  59 :   0.2000-0.4000 0.4000  plane waves:    2549
 k-point  60 :   0.4000 0.4000 0.4000  plane waves:    2533
 k-point  61 :  -0.4000 0.4000 0.4000  plane waves:    2533
 k-point  62 :  -0.4000-0.4000 0.4000  plane waves:    2533
 k-point  63 :   0.4000-0.4000 0.4000  plane waves:    2533

 maximum and minimum number of plane-waves per node :       235      194

 maximum number of plane-waves:      2572
 maximum index in each direction: 
   IXMAX=    8   IYMAX=    8   IZMAX=    8
   IXMIN=   -8   IYMIN=   -8   IZMIN=   -8


 parallel 3D FFT for wavefunctions:
    minimum data exchange during FFTs selected (reduces bandwidth)
 parallel 3D FFT for charge:
    minimum data exchange during FFTs selected (reduces bandwidth)


 total amount of memory used by VASP MPI-rank0    48253. kBytes
=======================================================================

   base      :      30000. kBytes
   nonl-proj :       8332. kBytes
   fftplans  :        456. kBytes
   grid      :        919. kBytes
   one-center:         31. kBytes
   wavefun   :       8515. kBytes
 
     INWAV:  cpu time      0.0000: real time      0.0001
 Broyden mixing: mesh for mixing (old mesh)
   NGX = 17   NGY = 17   NGZ = 17
  (NGX  = 72   NGY  = 72   NGZ  = 72)
  gives a total of   4913 points

 initial charge density was supplied:
 charge density of overlapping atoms calculated
 number of electron     213.0000000 magnetization 
 keeping initial charge density in first step


--------------------------------------------------------------------------------------------------------


 Maximum index for augmentation-charges          517 (set IRDMAX)


--------------------------------------------------------------------------------------------------------


 First call to EWALD:  gamma=   0.269
 Maximum number of real-space cells 3x 3x 3
 Maximum number of reciprocal cells 3x 3x 3

    FEWALD:  cpu time      0.0013: real time      0.0013


--------------------------------------- Iteration      1(   1)  ---------------------------------------


    POTLOK:  cpu time      0.0061: real time      0.0887
    SETDIJ:  cpu time      0.0030: real time      0.0031
     EDDAV:  cpu time      4.5382: real time      4.5603
       DOS:  cpu time      0.0043: real time      0.0043
    --------------------------------------------
      LOOP:  cpu time      4.5516: real time      4.6564

 eigenvalue-minimisations  : 16560
 total energy-change (2. order) : 0.1967769E+04  (-0.8431916E+04)
 number of electron     213.0000000 magnetization 
 augmentation part      213.0000000 magnetization 

 Free energy of the ion-electron system (eV)
  ---------------------------------------------------
  alpha Z        PSCENC =      1619.02930525
  Ewald energy   TEWEN  =    -22611.27758825
  -Hartree energ DENC   =     -4295.54853217
  -exchange      EXHF   =         0.00000000
  -V(xc)+E(xc)   XCENC  =       916.19276804
  PAW double counting   =     21072.98951603   -20762.46948559
  entropy T*S    EENTRO =        -0.00090326
  eigenvalues    EBANDS =      -503.37739308
  atomic energy  EATOM  =     26532.23105517
  Solvation  Ediel_sol  =         0.00000000
  ---------------------------------------------------
  free energy    TOTEN  =      1967.76874215 eV

  energy without entropy =     1967.76964541  energy(sigma->0) =     1967.76919378


--------------------------------------------------------------------------------------------------------




--------------------------------------- Iteration      1(   2)  ---------------------------------------


     EDDAV:  cpu time      3.1639: real time      3.1773
       DOS:  cpu time      0.0054: real time      0.0054
    --------------------------------------------
      LOOP:  cpu time      3.1693: real time      3.1827

 eigenvalue-minimisations  : 16984
 total energy-change (2. order) :-0.1964399E+04  (-0.1903989E+04)
 number of electron     213.0000000 magnetization 
 augmentation part      213.0000000 magnetization 

 Free energy of the ion-electron system (eV)
  ---------------------------------------------------
  alpha Z        PSCENC =      1619.02930525
  Ewald energy   TEWEN  =    -22611.27758825
  -Hartree energ DENC   =     -4295.54853217
  -exchange      EXHF   =         0.00000000
  -V(xc)+E(xc)   XCENC  =       916.19276804
  PAW double counting   =     21072.98951603   -20762.46948559
  entropy T*S    EENTRO =        -0.00147632
  eigenvalues    EBANDS =     -2467.77623169
  atomic energy  EATOM  =     26532.23105517
  Solvation  Ediel_sol  =         0.00000000
  ---------------------------------------------------
  free energy    TOTEN  =         3.36933047 eV

  energy without entropy =        3.37080679  energy(sigma->0) =        3.37006863


--------------------------------------------------------------------------------------------------------




--------------------------------------- Iteration      1(   3)  ---------------------------------------


     EDDAV:  cpu time      4.5673: real time      4.5887
       DOS:  cpu time      0.0052: real time      0.0052
    --------------------------------------------
      LOOP:  cpu time      4.5725: real time      4.5939

 eigenvalue-minimisations  : 26208
 total energy-change (2. order) :-0.1761528E+03  (-0.1678256E+03)
 number of electron     213.0000000 magnetization 
 augmentation part      213.0000000 magnetization 

 Free energy of the ion-electron system (eV)
  ---------------------------------------------------
  alpha Z        PSCENC =      1619.02930525
  Ewald energy   TEWEN  =    -22611.27758825
  -Hartree energ DENC   =     -4295.54853217
  -exchange      EXHF   =         0.00000000
  -V(xc)+E(xc)   XCENC  =       916.19276804
  PAW double counting   =     21072.98951603   -20762.46948559
  entropy T*S    EENTRO =        -0.00228804
  eigenvalues    EBANDS =     -2643.92825730
  atomic energy  EATOM  =     26532.23105517
  Solvation  Ediel_sol  =         0.00000000
  ---------------------------------------------------
  free energy    TOTEN  =      -172.78350686 eV

  energy without entropy =     -172.78121882  energy(sigma->0) =     -172.78236284


--------------------------------------------------------------------------------------------------------




--------------------------------------- Iteration      1(   4)  ---------------------------------------


     EDDAV:  cpu time      4.3799: real time      4.3982
       DOS:  cpu time      0.0057: real time      0.0057
    --------------------------------------------
      LOOP:  cpu time      4.3856: real time      4.4039

 eigenvalue-minimisations  : 26080
 total energy-change (2. order) :-0.1252513E+02  (-0.1220932E+02)
 number of electron     213.0000000 magnetization 
 augmentation part      213.0000000 magnetization 

 Free energy of the ion-electron system (eV)
  ---------------------------------------------------
  alpha Z        PSCENC =      1619.02930525
  Ewald energy   TEWEN  =    -22611.27758825
  -Hartree energ DENC   =     -4295.54853217
  -exchange      EXHF   =         0.00000000
  -V(xc)+E(xc)   XCENC  =       916.19276804
  PAW double counting   =     21072.98951603   -20762.46948559
  entropy T*S    EENTRO =        -0.00398736
  eigenvalues    EBANDS =     -2656.45169085
  atomic energy  EATOM  =     26532.23105517
  Solvation  Ediel_sol  =         0.00000000
  ---------------------------------------------------
  free energy    TOTEN  =      -185.30863973 eV

  energy without entropy =     -185.30465237  energy(sigma->0) =     -185.30664605


--------------------------------------------------------------------------------------------------------




--------------------------------------- Iteration      1(   5)  ---------------------------------------


     EDDAV:  cpu time      4.1828: real time      4.2035
       DOS:  cpu time      0.0061: real time      0.0061
    CHARGE:  cpu time      0.0883: real time      0.0886
    MIXING:  cpu time      0.0002: real time      0.0002
    --------------------------------------------
      LOOP:  cpu time      4.2774: real time      4.2984

 eigenvalue-minimisations  : 24688
 total energy-change (2. order) :-0.7657549E+00  (-0.7599822E+00)
 number of electron     212.9999800 magnetization 
 augmentation part       34.1176559 magnetization 

 Broyden mixing:
  rms(total) = 0.46323E+01    rms(broyden)= 0.46310E+01
  rms(prec ) = 0.52123E+01
  weight for this iteration     100.00

 Free energy of the ion-electron system (eV)
  ---------------------------------------------------
  alpha Z        PSCENC =      1619.02930525
  Ewald energy   TEWEN  =    -22611.27758825
  -Hartree energ DENC   =     -4295.54853217
  -exchange      EXHF   =         0.00000000
  -V(xc)+E(xc)   XCENC  =       916.19276804
  PAW double counting   =     21072.98951603   -20762.46948559
  entropy T*S    EENTRO =        -0.00400996
  eigenvalues    EBANDS =     -2657.21742311
  atomic energy  EATOM  =     26532.23105517
  Solvation  Ediel_sol  =         0.00000000
  ---------------------------------------------------
  free energy    TOTEN  =      -186.07439458 eV

  energy without entropy =     -186.07038463  energy(sigma->0) =     -186.07238960


--------------------------------------------------------------------------------------------------------




--------------------------------------- Iteration      1(   6)  ---------------------------------------


    POTLOK:  cpu time      0.0046: real time      0.0048
    SETDIJ:  cpu time      0.0018: real time      0.0018
     EDDAV:  cpu time      3.4811: real time      3.4953
       DOS:  cpu time      0.0049: real time      0.0050
    CHARGE:  cpu time      0.0853: real time      0.0857
    MIXING:  cpu time      0.0003: real time      0.0003
    --------------------------------------------
      LOOP:  cpu time      3.5781: real time      3.5928

 eigenvalue-minimisations  : 19400
 total energy-change (2. order) : 0.7391472E+01  (-0.2134204E+01)
 number of electron     212.9999790 magnetization 
 augmentation part       35.8470759 magnetization 

 Broyden mixing:
  rms(total) = 0.16209E+01    rms(broyden)= 0.16204E+01
  rms(prec ) = 0.21654E+01
  weight for this iteration     100.00

 eigenvalues of (default mixing * dielectric matrix)
  average eigenvalue GAMMA=   1.3746
  1.3746

 Free energy of the ion-electron system (eV)
  ---------------------------------------------------
  alpha Z        PSCENC =      1619.02930525
  Ewald energy   TEWEN  =    -22611.27758825
  -Hartree energ DENC   =     -4072.22326439
  -exchange      EXHF   =         0.00000000
  -V(xc)+E(xc)   XCENC  =       904.84157333
  PAW double counting   =     24139.05556752   -23848.55018213
  entropy T*S    EENTRO =        -0.00268572
  eigenvalues    EBANDS =     -2841.78670364
  atomic energy  EATOM  =     26532.23105517
  Solvation  Ediel_sol  =         0.00000000
  ---------------------------------------------------
  free energy    TOTEN  =      -178.68292286 eV

  energy without entropy =     -178.68023714  energy(sigma->0) =     -178.68158000


--------------------------------------------------------------------------------------------------------




--------------------------------------- Iteration      1(   7)  ---------------------------------------


    POTLOK:  cpu time      0.0045: real time      0.0047
    SETDIJ:  cpu time      0.0017: real time      0.0017
     EDDAV:  cpu time      4.1388: real time      4.1559
       DOS:  cpu time      0.0046: real time      0.0046
    CHARGE:  cpu time      0.0846: real time      0.0849
    MIXING:  cpu time      0.0003: real time      0.0003
    --------------------------------------------
      LOOP:  cpu time      4.2345: real time      4.2521

 eigenvalue-minimisations  : 24224
 total energy-change (2. order) :-0.3738687E+00  (-0.1701609E+01)
 number of electron     212.9999794 magnetization 
 augmentation part       35.4719190 magnetization 

 Broyden mixing:
  rms(total) = 0.10161E+01    rms(broyden)= 0.10156E+01
  rms(prec ) = 0.25427E+01
  weight for this iteration     100.00

 eigenvalues of (default mixing * dielectric matrix)
  average eigenvalue GAMMA=   1.0148
  1.5177  0.5120

 Free energy of the ion-electron system (eV)
  ---------------------------------------------------
  alpha Z        PSCENC =      1619.02930525
  Ewald energy   TEWEN  =    -22611.27758825
  -Hartree energ DENC   =     -4004.25015479
  -exchange      EXHF   =         0.00000000
  -V(xc)+E(xc)   XCENC  =       900.93736452
  PAW double counting   =     25813.30166303   -25526.85040901
  entropy T*S    EENTRO =        -0.00407345
  eigenvalues    EBANDS =     -2902.17395406
  atomic energy  EATOM  =     26532.23105517
  Solvation  Ediel_sol  =         0.00000000
  ---------------------------------------------------
  free energy    TOTEN  =      -179.05679159 eV

  energy without entropy =     -179.05271813  energy(sigma->0) =     -179.05475486


--------------------------------------------------------------------------------------------------------




--------------------------------------- Iteration      1(   8)  ---------------------------------------


    POTLOK:  cpu time      0.0045: real time      0.0046
    SETDIJ:  cpu time      0.0017: real time      0.0017
     EDDAV:  cpu time      3.7380: real time      3.7541
       DOS:  cpu time      0.0058: real time      0.0058
    CHARGE:  cpu time      0.0863: real time      0.0866
    MIXING:  cpu time      0.0003: real time      0.0003
    --------------------------------------------
      LOOP:  cpu time      3.8364: real time      3.8530

 eigenvalue-minimisations  : 21112
 total energy-change (2. order) : 0.2178923E+01  (-0.9231760E+00)
 number of electron     212.9999791 magnetization 
 augmentation part       35.9345166 magnetization 

 Broyden mixing:
  rms(total) = 0.38329E+00    rms(broyden)= 0.38221E+00
  rms(prec ) = 0.62457E+00
  weight for this iteration     100.00

 eigenvalues of (default mixing * dielectric matrix)
  average eigenvalue GAMMA=   0.9756
  1.5321  1.0134  0.3813

 Free energy of the ion-electron system (eV)
  ---------------------------------------------------
  alpha Z        PSCENC =      1619.02930525
  Ewald energy   TEWEN  =    -22611.27758825
  -Hartree energ DENC   =     -3967.48932008
  -exchange      EXHF   =         0.00000000
  -V(xc)+E(xc)   XCENC  =       899.23664328
  PAW double counting   =     26373.36212393   -26089.39136855
  entropy T*S    EENTRO =        -0.00257939
  eigenvalues    EBANDS =     -2932.57613948
  atomic energy  EATOM  =     26532.23105517
  Solvation  Ediel_sol  =         0.00000000
  ---------------------------------------------------
  free energy    TOTEN  =      -176.87786813 eV

  energy without entropy =     -176.87528873  energy(sigma->0) =     -176.87657843


--------------------------------------------------------------------------------------------------------




--------------------------------------- Iteration      1(   9)  ---------------------------------------


    POTLOK:  cpu time      0.0045: real time      0.0046
    SETDIJ:  cpu time      0.0017: real time      0.0017
     EDDAV:  cpu time      3.9613: real time      3.9775
       DOS:  cpu time      0.0054: real time      0.0054
    CHARGE:  cpu time      0.0865: real time      0.0868
    MIXING:  cpu time      0.0003: real time      0.0003
    --------------------------------------------
      LOOP:  cpu time      4.0596: real time      4.0764

 eigenvalue-minimisations  : 23088
 total energy-change (2. order) :-0.2798482E-01  (-0.1605784E+00)
 number of electron     212.9999793 magnetization 
 augmentation part       35.9105261 magnetization 

 Broyden mixing:
  rms(total) = 0.29278E+00    rms(broyden)= 0.29269E+00
  rms(prec ) = 0.42429E+00
  weight for this iteration     100.00

 eigenvalues of (default mixing * dielectric matrix)
  average eigenvalue GAMMA=   1.0834
  1.7432  1.7432  0.4961  0.3509

 Free energy of the ion-electron system (eV)
  ---------------------------------------------------
  alpha Z        PSCENC =      1619.02930525
  Ewald energy   TEWEN  =    -22611.27758825
  -Hartree energ DENC   =     -3966.32319244
  -exchange      EXHF   =         0.00000000
  -V(xc)+E(xc)   XCENC  =       899.17802021
  PAW double counting   =     26497.09341952   -26211.28762682
  entropy T*S    EENTRO =        -0.00255913
  eigenvalues    EBANDS =     -2935.54668647
  atomic energy  EATOM  =     26532.23105517
  Solvation  Ediel_sol  =         0.00000000
  ---------------------------------------------------
  free energy    TOTEN  =      -176.90585295 eV

  energy without entropy =     -176.90329382  energy(sigma->0) =     -176.90457338


--------------------------------------------------------------------------------------------------------




--------------------------------------- Iteration      1(  10)  ---------------------------------------


    POTLOK:  cpu time      0.0045: real time      0.0047
    SETDIJ:  cpu time      0.0017: real time      0.0017
     EDDAV:  cpu time      3.8535: real time      3.8698
       DOS:  cpu time      0.0047: real time      0.0047
    CHARGE:  cpu time      0.0848: real time      0.0851
    MIXING:  cpu time      0.0003: real time      0.0003
    --------------------------------------------
      LOOP:  cpu time      3.9495: real time      3.9662

 eigenvalue-minimisations  : 22200
 total energy-change (2. order) : 0.2070391E-01  (-0.3750686E-01)
 number of electron     212.9999794 magnetization 
 augmentation part       35.8346210 magnetization 

 Broyden mixing:
  rms(total) = 0.12826E+00    rms(broyden)= 0.12822E+00
  rms(prec ) = 0.21688E+00
  weight for this iteration     100.00

 eigenvalues of (default mixing * dielectric matrix)
  average eigenvalue GAMMA=   1.1287
  2.4220  1.6346  0.8255  0.3901  0.3716

 Free energy of the ion-electron system (eV)
  ---------------------------------------------------
  alpha Z        PSCENC =      1619.02930525
  Ewald energy   TEWEN  =    -22611.27758825
  -Hartree energ DENC   =     -3970.01927497
  -exchange      EXHF   =         0.00000000
  -V(xc)+E(xc)   XCENC  =       899.30400317
  PAW double counting   =     26628.61843257   -26338.19694664
  entropy T*S    EENTRO =        -0.00286616
  eigenvalues    EBANDS =     -2936.57126918
  atomic energy  EATOM  =     26532.23105517
  Solvation  Ediel_sol  =         0.00000000
  ---------------------------------------------------
  free energy    TOTEN  =      -176.88514904 eV

  energy without entropy =     -176.88228288  energy(sigma->0) =     -176.88371596


--------------------------------------------------------------------------------------------------------




--------------------------------------- Iteration      1(  11)  ---------------------------------------


    POTLOK:  cpu time      0.0044: real time      0.0046
    SETDIJ:  cpu time      0.0017: real time      0.0017
     EDDAV:  cpu time      3.8452: real time      3.8611
       DOS:  cpu time      0.0047: real time      0.0047
    CHARGE:  cpu time      0.0849: real time      0.0852
    MIXING:  cpu time      0.0003: real time      0.0003
    --------------------------------------------
      LOOP:  cpu time      3.9413: real time      3.9576

 eigenvalue-minimisations  : 22216
 total energy-change (2. order) : 0.3266820E-02  (-0.1178359E-01)
 number of electron     212.9999794 magnetization 
 augmentation part       35.7965231 magnetization 

 Broyden mixing:
  rms(total) = 0.53988E-01    rms(broyden)= 0.53903E-01
  rms(prec ) = 0.14987E+00
  weight for this iteration     100.00

 eigenvalues of (default mixing * dielectric matrix)
  average eigenvalue GAMMA=   1.0599
  2.5612  1.6125  0.9102  0.5141  0.4032  0.3585

 Free energy of the ion-electron system (eV)
  ---------------------------------------------------
  alpha Z        PSCENC =      1619.02930525
  Ewald energy   TEWEN  =    -22611.27758825
  -Hartree energ DENC   =     -3971.93055892
  -exchange      EXHF   =         0.00000000
  -V(xc)+E(xc)   XCENC  =       899.37415729
  PAW double counting   =     26689.26277699   -26396.04424161
  entropy T*S    EENTRO =        -0.00282753
  eigenvalues    EBANDS =     -2937.52396061
  atomic energy  EATOM  =     26532.23105517
  Solvation  Ediel_sol  =         0.00000000
  ---------------------------------------------------
  free energy    TOTEN  =      -176.88188222 eV

  energy without entropy =     -176.87905469  energy(sigma->0) =     -176.88046845


--------------------------------------------------------------------------------------------------------




--------------------------------------- Iteration      1(  12)  ---------------------------------------


    POTLOK:  cpu time      0.0045: real time      0.0047
    SETDIJ:  cpu time      0.0017: real time      0.0017
     EDDAV:  cpu time      3.6889: real time      3.7040
       DOS:  cpu time      0.0058: real time      0.0058
    CHARGE:  cpu time      0.0867: real time      0.0870
    MIXING:  cpu time      0.0003: real time      0.0003
    --------------------------------------------
      LOOP:  cpu time      3.7880: real time      3.8036

 eigenvalue-minimisations  : 21064
 total energy-change (2. order) : 0.5696053E-02  (-0.4203124E-02)
 number of electron     212.9999794 magnetization 
 augmentation part       35.7925757 magnetization 

 Broyden mixing:
  rms(total) = 0.26281E-01    rms(broyden)= 0.26218E-01
  rms(prec ) = 0.63595E-01
  weight for this iteration     100.00

 eigenvalues of (default mixing * dielectric matrix)
  average eigenvalue GAMMA=   1.0155
[...]
     33     -24.1256      2.00000
     34     -24.0872      2.00000
     35     -24.0123      2.00000
     36     -24.0000      2.00000
     37     -23.4652      2.00000
     38     -23.4386      2.00000
     39     -23.4129      2.00000
     40     -20.4769      2.00000
     41     -20.4590      2.00000
     42     -20.4282      2.00000
     43     -20.4079      2.00000
     44     -20.3437      2.00000
     45     -20.3020      2.00000
     46     -20.2422      2.00000
     47     -20.1983      2.00000
     48     -20.1137      2.00000
     49     -20.1058      2.00000
     50     -20.1008      2.00000
     51     -20.0727      2.00000
     52     -20.0687      2.00000
     53     -20.0623      2.00000
     54     -20.0515      2.00000
     55     -19.9133      2.00000
     56     -19.8580      2.00000
     57     -19.7976      2.00000
     58     -19.7564      2.00000
     59     -19.7105      2.00000
     60     -19.6992      2.00000
     61     -19.6759      2.00000
     62     -19.6468      2.00000
     63     -19.6350      2.00000
     64       5.3387      2.00000
     65       5.9629      2.00000
     66       6.1637      2.00000
     67       6.7058      2.00000
     68       6.7850      2.00000
     69       7.0054      2.00000
     70       7.1744      2.00000
     71       7.6141      2.00000
     72       7.7303      2.00000
     73       7.7554      2.00000
     74       7.8273      2.00000
     75       7.8525      2.00000
     76       7.9163      2.00000
     77       7.9958      2.00000
     78       8.0030      2.00000
     79       8.0486      2.00000
     80       8.1236      2.00000
     81       8.1534      2.00000
     82       8.1713      2.00000
     83       8.2318      2.00000
     84       8.4893      2.00000
     85       8.5074      2.00000
     86       8.5647      2.00000
     87       8.6208      2.00000
     88       8.6839      2.00000
     89       8.7110      2.00000
     90       8.7592      2.00000
     91       8.8042      2.00000
     92       8.8136      2.00000
     93       8.8445      2.00000
     94       8.8630      2.00000
     95       8.9201      2.00000
     96       8.9315      2.00000
     97       8.9500      2.00000
     98       8.9701      2.00000
     99       9.0040      2.00000
    100       9.0364      2.00000
    101       9.0728      2.00000
    102       9.0943      2.00000
    103       9.1322      2.00000
    104       9.1530      2.00000
    105       9.1800      2.00000
    106       9.2455      2.00000
    107       9.2871      2.00000
    108       9.3345      2.00000
    109       9.3684      2.00000
    110       9.4088      2.00000
    111       9.8220      2.00000
    112      12.4102      0.00000
    113      12.4470      0.00000
    114      12.5520      0.00000
    115      12.6521      0.00000
    116      12.7171      0.00000
    117      12.7675      0.00000
    118      12.8351      0.00000
    119      12.8754      0.00000
    120      12.9488      0.00000
    121      13.0087      0.00000
    122      13.0422      0.00000
    123      13.1031      0.00000
    124      13.1473      0.00000
    125      13.1731      0.00000
    126      13.2386      0.00000
    127      13.3038      0.00000
    128      13.4276      0.00000

 k-point    63 :       0.4000   -0.4000    0.4000
  band No.  band energies     occupation 
      1     -63.2581      2.00000
      2     -63.1269      2.00000
      3     -63.1134      2.00000
      4     -50.1567      2.00000
      5     -50.0418      2.00000
      6     -50.0191      2.00000
      7     -50.0112      2.00000
      8     -44.0310      2.00000
      9     -44.0135      2.00000
     10     -44.0033      2.00000
     11     -43.9885      2.00000
     12     -43.9657      2.00000
     13     -43.8690      2.00000
     14     -43.8559      2.00000
     15     -43.8245      2.00000
     16     -27.5802      2.00000
     17     -27.5404      2.00000
     18     -27.4620      2.00000
     19     -27.3636      2.00000
     20     -27.3354      2.00000
     21     -27.3279      2.00000
     22     -27.3167      2.00000
     23     -27.2669      2.00000
     24     -27.2181      2.00000
     25     -24.3958      2.00000
     26     -24.3836      2.00000
     27     -24.2992      2.00000
     28     -24.2174      2.00000
     29     -24.1929      2.00000
     30     -24.1676      2.00000
     31     -24.1610      2.00000
     32     -24.1462      2.00000
     33     -24.1256      2.00000
     34     -24.0855      2.00000
     35     -24.0147      2.00000
     36     -23.9992      2.00000
     37     -23.4652      2.00000
     38     -23.4386      2.00000
     39     -23.4128      2.00000
     40     -20.4815      2.00000
     41     -20.4612      2.00000
     42     -20.4302      2.00000
     43     -20.3934      2.00000
     44     -20.3507      2.00000
     45     -20.2994      2.00000
     46     -20.2474      2.00000
     47     -20.1925      2.00000
     48     -20.1180      2.00000
     49     -20.1054      2.00000
     50     -20.0965      2.00000
     51     -20.0762      2.00000
     52     -20.0675      2.00000
     53     -20.0618      2.00000
     54     -20.0559      2.00000
     55     -19.9069      2.00000
     56     -19.8561      2.00000
     57     -19.8012      2.00000
     58     -19.7557      2.00000
     59     -19.7174      2.00000
     60     -19.6929      2.00000
     61     -19.6781      2.00000
     62     -19.6456      2.00000
     63     -19.6350      2.00000
     64       5.3391      2.00000
     65       5.9586      2.00000
     66       6.1696      2.00000
     67       6.6912      2.00000
     68       6.7891      2.00000
     69       7.0189      2.00000
     70       7.1731      2.00000
     71       7.6166      2.00000
     72       7.7416      2.00000
     73       7.7772      2.00000
     74       7.8122      2.00000
     75       7.8576      2.00000
     76       7.9021      2.00000
     77       7.9742      2.00000
     78       7.9905      2.00000
     79       7.9986      2.00000
     80       8.1505      2.00000
     81       8.1725      2.00000
     82       8.2059      2.00000
     83       8.2408      2.00000
     84       8.4954      2.00000
     85       8.5275      2.00000
     86       8.5981      2.00000
     87       8.6081      2.00000
     88       8.6920      2.00000
     89       8.7187      2.00000
     90       8.7288      2.00000
     91       8.7582      2.00000
     92       8.7830      2.00000
     93       8.8229      2.00000
     94       8.8492      2.00000
     95       8.8800      2.00000
     96       8.9301      2.00000
     97       8.9474      2.00000
     98       8.9872      2.00000
     99       9.0074      2.00000
    100       9.0463      2.00000
    101       9.1007      2.00000
    102       9.1282      2.00000
    103       9.1457      2.00000
    104       9.1755      2.00000
    105       9.2198      2.00000
    106       9.2442      2.00000
    107       9.2872      2.00000
    108       9.3145      2.00000
    109       9.3313      2.00000
    110       9.3704      2.00000
    111       9.8513      2.00000
    112      12.3401      0.00000
    113      12.4206      0.00000
    114      12.5762      0.00000
    115      12.6421      0.00000
    116      12.6960      0.00000
    117      12.8148      0.00000
    118      12.8518      0.00000
    119      12.9173      0.00000
    120      12.9792      0.00000
    121      13.0177      0.00000
    122      13.0712      0.00000
    123      13.0795      0.00000
    124      13.1432      0.00000
    125      13.2039      0.00000
    126      13.2655      0.00000
    127      13.3314      0.00000
    128      13.3648      0.00000


--------------------------------------------------------------------------------------------------------


 soft charge-density along one line, spin component           1
         0         1         2         3         4         5         6         7         8         9
 total charge-density along one line
 
 pseudopotential strength for first ion, spin component:           1
  5.669 -19.923  -0.001  -0.000  -0.000   0.001   0.001   0.000
-19.923   8.875  -0.001  -0.001  -0.000   0.000   0.000   0.000
 -0.001  -0.001  -9.565   0.000  -0.002   5.738  -0.000   0.002
 -0.000  -0.001   0.000  -9.560  -0.001  -0.000   5.734   0.001
 -0.000  -0.000  -0.002  -0.001  -9.561   0.002   0.001   5.734
  0.001   0.000   5.738  -0.000   0.002   8.116  -0.000  -0.001
  0.001   0.000  -0.000   5.734   0.001  -0.000   8.118  -0.001
  0.000   0.000   0.002   0.001   5.734  -0.001  -0.001   8.118
 -0.001  -0.000  -0.000  -0.000  -0.001   0.000   0.000   0.001
 -0.000   0.000  -0.000  -0.001  -0.000   0.000   0.001   0.000
  0.001   0.000   0.000  -0.000   0.000  -0.000   0.000  -0.000
 -0.001  -0.000  -0.000  -0.000  -0.001   0.000   0.000   0.000
  0.001   0.000   0.000  -0.000  -0.000  -0.001  -0.000   0.000
 -0.002  -0.001  -0.000  -0.000  -0.001   0.000   0.000   0.001
 -0.000   0.000  -0.001  -0.001  -0.000   0.001   0.001   0.000
  0.001   0.000   0.000  -0.001   0.000  -0.000   0.001  -0.000
 -0.001  -0.000  -0.000  -0.000  -0.001   0.000   0.000   0.001
  0.002   0.001   0.001  -0.000  -0.000  -0.001  -0.000   0.000
 total augmentation occupancy for first ion, spin component:           1
  1.995  -0.046  -0.000  -0.000  -0.000  -0.000  -0.000  -0.000  -0.008  -0.007   0.002  -0.007   0.003   0.006   0.005  -0.002
 -0.046   1.369  -0.001  -0.001   0.000   0.001   0.001  -0.000  -0.016   0.009   0.025  -0.016   0.038   0.001  -0.018  -0.010
 -0.000  -0.001   1.996   0.000   0.000  -0.029  -0.001  -0.001  -0.000  -0.003   0.002   0.000   0.003  -0.000   0.002  -0.001
 -0.000  -0.001   0.000   1.996   0.000  -0.001  -0.029  -0.001   0.000  -0.004  -0.003  -0.000  -0.000  -0.000   0.003   0.002
 -0.000   0.000   0.000   0.000   1.996  -0.001  -0.001  -0.029  -0.005   0.000   0.000  -0.004  -0.000   0.003  -0.000  -0.000
 -0.000   0.001  -0.029  -0.001  -0.001   0.066   0.002   0.002   0.000   0.008  -0.001   0.000  -0.001   0.000  -0.005   0.001
 -0.000   0.001  -0.001  -0.029  -0.001   0.002   0.067   0.002  -0.000   0.009   0.002   0.000   0.000   0.001  -0.005  -0.001
 -0.000  -0.000  -0.001  -0.001  -0.029   0.002   0.002   0.067   0.010  -0.000  -0.000   0.010   0.001  -0.006   0.001   0.000
 -0.008  -0.016  -0.000   0.000  -0.005   0.000  -0.000   0.010   3.264   0.015   0.064   0.099  -0.002  -1.358  -0.017  -0.027
 -0.007   0.009  -0.003  -0.004   0.000   0.008   0.009  -0.000   0.015   3.258  -0.025   0.015   0.048  -0.017  -1.355   0.011
  0.002   0.025   0.002  -0.003   0.000  -0.001   0.002  -0.000   0.064  -0.025   2.809  -0.029  -0.051  -0.026   0.010  -1.273
 -0.007  -0.016   0.000  -0.000  -0.004   0.000   0.000   0.010   0.099   0.015  -0.029   3.244  -0.052  -0.065  -0.017   0.013
  0.003   0.038   0.003  -0.000  -0.000  -0.001   0.000   0.001  -0.002   0.048  -0.051  -0.052   2.742   0.001  -0.020   0.019
  0.006   0.001  -0.000  -0.000   0.003   0.000   0.001  -0.006  -1.358  -0.017  -0.026  -0.065   0.001   0.575   0.011   0.011
  0.005  -0.018   0.002   0.003  -0.000  -0.005  -0.005   0.001  -0.017  -1.355   0.010  -0.017  -0.020   0.011   0.574  -0.004
 -0.002  -0.010  -0.001   0.002  -0.000   0.001  -0.001   0.000  -0.027   0.011  -1.273   0.013   0.019   0.011  -0.004   0.585
  0.006   0.002  -0.000  -0.000   0.003   0.000   0.000  -0.006  -0.065  -0.017   0.012  -1.355   0.022   0.037   0.011  -0.005
 -0.003  -0.016  -0.002   0.000   0.000   0.001  -0.000  -0.000   0.001  -0.020   0.019   0.023  -1.249  -0.001   0.009  -0.007


------------------------ aborting loop because EDIFF is reached ----------------------------------------


    CHARGE:  cpu time      0.0868: real time      0.0872
    FORLOC:  cpu time      0.0005: real time      0.0005
    FORNL :  cpu time      0.8144: real time      0.8171
    STRESS:  cpu time      1.0317: real time      1.0351
    FORCOR:  cpu time      0.0064: real time      0.0064
    FORHAR:  cpu time      0.0014: real time      0.0016
    MIXING:  cpu time      0.0006: real time      0.0006
    OFIELD:  cpu time      0.0000: real time      0.0000

  FORCE on cell =-STRESS in cart. coord.  units (eV):
  Direction    XX          YY          ZZ          XY          YZ          ZX
  --------------------------------------------------------------------------------------
  Alpha Z  1619.02931  1619.02931  1619.02931
  Ewald   -7538.68238 -7541.23158 -7531.43559    -4.21537    -0.00000     4.21537
  Hartree  1322.37952  1320.81774  1328.83295    -4.28149     0.28979     4.20882
  E(xc)    -985.50138  -985.53373  -985.52763     0.00477     0.00076    -0.00558
  Local    1634.88085  1637.47608  1620.79925     8.37024    -0.52477    -8.13344
  n-local  -254.02485  -250.00456  -252.82154     0.86428     0.90889    -0.79098
  augment   504.45528   504.53250   504.52511    -0.02138    -0.11221    -0.02290
  Kinetic  3670.20981  3669.01589  3670.14153    -0.92285    -0.21777     0.84927
  Fock        0.00000     0.00000     0.00000     0.00000     0.00000     0.00000
  -------------------------------------------------------------------------------------
  Total     -27.25384   -25.89837   -26.45662    -0.20180     0.34468     0.32055
  in kB    -153.27122  -145.64825  -148.78778    -1.13486     1.93843     1.80274
  external pressure =     -149.24 kB  Pullay stress =        0.00 kB


 VOLUME and BASIS-vectors are now :
 -----------------------------------------------------------------------------
  energy-cutoff  :      250.00
  volume of cell :      284.89
      direct lattice vectors                 reciprocal lattice vectors
     6.580000000  0.000000000  0.000000000     0.151975684  0.000000000  0.000000000
     0.000000000  6.580000000  0.000000000     0.000000000  0.151975684  0.000000000
     0.000000000  0.000000000  6.580000000     0.000000000  0.000000000  0.151975684

  length of vectors
     6.580000000  6.580000000  6.580000000     0.151975684  0.151975684  0.151975684


 FORCES acting on ions
    electron-ion (+dipol)            ewald-force                    non-local-force                 convergence-correction
 -----------------------------------------------------------------------------------------------
   0.204E+02 -.204E+02 -.203E+02   -.204E+02 0.204E+02 0.204E+02   0.132E-01 -.102E+00 -.111E+00   0.393E-04 -.272E-04 0.340E-05
   0.104E+02 0.314E+02 -.104E+02   -.102E+02 -.306E+02 0.102E+02   -.384E-01 -.194E+00 -.857E-01   -.207E-04 -.606E-04 0.393E-04
   -.104E+02 0.313E+02 -.103E+02   0.102E+02 -.306E+02 0.102E+02   0.298E-01 -.211E+00 -.120E+00   0.173E-04 -.456E-04 0.403E-04
   0.104E+02 -.313E+02 0.103E+02   -.102E+02 0.306E+02 -.102E+02   -.316E-01 0.209E+00 0.126E+00   -.213E-04 0.599E-04 -.407E-04
   -.204E+02 -.204E+02 -.204E+02   0.204E+02 0.204E+02 0.204E+02   -.127E-01 -.103E+00 -.996E-01   -.348E-04 -.284E-04 -.173E-05
   0.204E+02 -.204E+02 0.204E+02   -.204E+02 0.204E+02 -.204E+02   0.159E-01 -.997E-01 0.961E-01   0.325E-04 -.329E-04 -.106E-05
   -.104E+02 -.314E+02 0.104E+02   0.102E+02 0.306E+02 -.102E+02   0.415E-01 0.193E+00 0.803E-01   0.182E-04 0.561E-04 -.340E-04
   0.105E+02 -.314E+02 -.104E+02   -.102E+02 0.306E+02 0.102E+02   -.430E-01 0.191E+00 -.112E+00   -.124E-04 0.490E-04 0.344E-04
   -.220E+02 0.219E+02 0.219E+02   0.220E+02 -.220E+02 -.220E+02   0.982E-03 0.721E-01 0.847E-01   -.283E-04 0.313E-04 0.308E-06
   -.220E+02 -.218E+02 0.219E+02   0.220E+02 0.220E+02 -.220E+02   0.101E-02 -.774E-01 0.697E-01   -.298E-04 -.307E-04 -.215E-05
   0.220E+02 0.219E+02 0.219E+02   -.220E+02 -.220E+02 -.220E+02   0.145E-02 0.829E-01 0.782E-01   0.288E-04 0.301E-04 -.439E-06
   -.111E+02 -.335E+02 -.110E+02   0.110E+02 0.329E+02 0.110E+02   -.690E-02 0.484E-01 -.103E+00   0.181E-04 0.639E-04 0.452E-04
   -.889E+01 0.267E+02 0.884E+01   0.863E+01 -.259E+02 -.863E+01   0.160E-01 -.576E-01 0.847E-01   0.158E-04 -.461E-04 -.300E-04
   0.220E+02 0.220E+02 -.220E+02   -.220E+02 -.220E+02 0.220E+02   -.410E-02 -.817E-02 0.717E-02   0.304E-04 0.304E-04 -.152E-05
   -.220E+02 0.220E+02 -.220E+02   0.220E+02 -.220E+02 0.220E+02   0.292E-02 -.870E-02 0.333E-02   -.294E-04 0.332E-04 -.359E-05
   0.111E+02 0.334E+02 0.111E+02   -.110E+02 -.329E+02 -.110E+02   0.419E-01 0.133E+00 0.557E-01   -.222E-04 -.671E-04 -.481E-04
 -----------------------------------------------------------------------------------------------
   -.280E-01 -.675E-01 -.557E-01   0.497E-13 0.000E+00 0.121E-12   0.280E-01 0.675E-01 0.557E-01   0.150E-05 0.153E-04 -.313E-06
 
 
 POSITION                                       TOTAL-FORCE (eV/Angst)
 -----------------------------------------------------------------------------------
      4.93500      1.64500      1.64500         0.022864     -0.069481     -0.056953
      0.00000      3.29000      0.00000         0.205442      0.568247     -0.275005
      3.29000      3.29000      0.00000        -0.214277      0.537515     -0.247568
      0.00000      0.00000      3.29000         0.209134     -0.522442      0.256017
      1.64500      1.64500      1.64500        -0.017661     -0.076447     -0.088810
      4.93500      1.64500      4.93500         0.020076     -0.076572      0.076223
      3.29000      0.00000      3.29000        -0.204980     -0.569465      0.284552
      0.00000      0.00000      0.00000         0.210994     -0.611743     -0.269504
      1.64500      4.93500      4.93500        -0.007189      0.011571      0.000212
      1.64500      1.64500      4.93500        -0.013327      0.039504     -0.032363
      4.93500      4.93500      4.93500         0.010619     -0.011582     -0.006488
      3.29000      0.00000      0.00000        -0.164402     -0.544071     -0.118843
      3.29000      3.29000      3.29000        -0.242753      0.730654      0.296927
      4.93500      4.93500      1.64500         0.001318     -0.015113      0.017087
      1.64500      4.93500      1.64500        -0.003593     -0.013076      0.011436
      0.00000      3.29000      3.29000         0.187735      0.622500      0.153080
 -----------------------------------------------------------------------------------
    total drift:                                0.000002      0.000018      0.000014


--------------------------------------------------------------------------------------------------------



  FREE ENERGIE OF THE ION-ELECTRON SYSTEM (eV)
  ---------------------------------------------------
  free  energy   TOTEN  =      -176.87481665 eV

  energy  without entropy=     -176.87201725  energy(sigma->0) =     -176.87341695
 


--------------------------------------------------------------------------------------------------------


    POTLOK:  cpu time      0.0060: real time      0.0060


--------------------------------------------------------------------------------------------------------


     LOOP+:  cpu time    129.2153: real time    131.8827
    4ORBIT:  cpu time      0.0000: real time      0.0000

 total amount of memory used by VASP MPI-rank0    48253. kBytes
=======================================================================

   base      :      30000. kBytes
   nonl-proj :       8332. kBytes
   fftplans  :        456. kBytes
   grid      :        919. kBytes
   one-center:         31. kBytes
   wavefun   :       8515. kBytes
 
  
  
 General timing and accounting informations for this job:
 ========================================================
  
                  Total CPU time used (sec):      133.693
                            User time (sec):      131.913
                          System time (sec):        1.780
                         Elapsed time (sec):      138.984
  
                   Maximum memory used (kb):       91880.
                   Average memory used (kb):          N/A
  
                          Minor page faults:        10463
                          Major page faults:            0
                 Voluntary context switches:          208
