 vasp.6.3.1 04May22 (build Jul 26 2022 04:02:40) complex                        
  
 executed on             LinuxIFC date 2023.11.30  21:57:42
 running on   48 total cores
 distrk:  each k-point on   48 cores,    1 groups
 distr:  one band on NCORE=  12 cores,    4 groups


--------------------------------------------------------------------------------------------------------


 INCAR:
   ISTART = 0
   NWRITE = 2
   PREC = Accurate
   ENCUT = 250
   GGA = PE
   NSW = 0
   ISIF = 2
   ISYM = 2
   NBLOCK = 1
   KBLOCK = 1
   IBRION = -1
   NELM = 80
   EDIFF = 1E-08
   EDIFFG = -0.01
   ALGO = Normal
   LDIAG = .TRUE.
   LREAL = .FALSE.
   ISMEAR = 0
   SIGMA = 0.02
   ICHARG = 2
   LPLANE = .TRUE.
   NPAR = 4
   LSCALU = .FALSE.
   NSIM = 4
   LWAVE = .FALSE.
   LCHARG = .FALSE.
   ICORELEVEL = 1

 POTCAR:    PAW_PBE Nb_sv 25May2007               
 POTCAR:    PAW_PBE Mo_sv 02Feb2006               
 POTCAR:    PAW_PBE Ta_pv 07Sep2000               
 POTCAR:    PAW_PBE W_sv 04Sep2015                
 POTCAR:    PAW_PBE Nb_sv 25May2007               
   SHA256 =  0e8fc07c9fcd1164cf2ade22d0399fd28f85e91cd773dfa6cf24839a48c95e24 Nb_sv/POTCAR          
   COPYR  = (c) Copyright 25May2007 Georg Kresse                                                    
   COPYR  = This file is part of the software VASP. Any use, copying, and all other rights are regul
   COPYR  = If you do not have a valid VASP license, you may not use, copy or distribute this file. 
   VRHFIN =Nb: 4p5s4d                                                                               
   LEXCH  = PE                                                                                      
   EATOM  =  1555.1913 eV,  114.3033 Ry                                                             
                                                                                                    
   TITEL  = PAW_PBE Nb_sv 25May2007                                                                 
   LULTRA =        F    use ultrasoft PP ?                                                          
   IUNSCR =        1    unscreen: 0-lin 1-nonlin 2-no                                               
   RPACOR =    1.800    partial core radius                                                         
   POMASS =   92.910; ZVAL   =   13.000    mass and valenz                                          
   RCORE  =    2.400    outmost cutoff radius                                                       
   RWIGS  =    2.400; RWIGS  =    1.270    wigner-seitz radius (au A)                               
   ENMAX  =  293.235; ENMIN  =  219.927 eV                                                          
   ICORE  =        3    local potential                                                             
   LCOR   =        T    correct aug charges                                                         
   LPAW   =        T    paw PP                                                                      
   EAUG   =  455.659                                                                                
   DEXC   =    0.000                                                                                
   RMAX   =    2.456    core radius for proj-oper                                                   
   RAUG   =    1.300    factor for augmentation sphere                                              
   RDEP   =    2.451    radius for radial grids                                                     
   RDEPT  =    1.956    core radius for aug-charge                                                  
                                                                                                    
   Atomic configuration                                                                             
   11 entries                                                                                       
     n  l   j            E        occ.                                                              
     1  0  0.50    -18805.2457   2.0000                                                             
     2  0  0.50     -2630.2869   2.0000                                                             
     2  1  1.50     -2348.4046   6.0000                                                             
     3  0  0.50      -438.8757   2.0000                                                             
     3  1  1.50      -346.7588   6.0000                                                             
     3  2  2.50      -196.2560  10.0000                                                             
     4  0  0.50       -58.3859   2.0000                                                             
     5  0  0.50        -3.9816   1.0000                                                             
     4  1  1.50       -34.5141   6.0000                                                             
     4  2  2.50        -3.0408   4.0000                                                             
     4  3  2.50        -1.3606   0.0000                                                             
   Description                                                                                      
     l       E           TYP  RCUT    TYP  RCUT                                                     
     0    -58.3859094     23  2.200                                                                 
     0     -3.9816262     23  2.200                                                                 
     1    -34.5140738     23  2.200                                                                 
     1     13.6058260     23  2.200                                                                 
     2     -3.0408010     23  2.200                                                                 
     2     -0.1283038     23  2.200                                                                 
     3     -1.3605826     23  2.400                                                                 
  local pseudopotential read in
  partial core-charges read in
  partial kinetic energy density read in
  atomic valenz-charges read in
  non local Contribution for L=           0  read in
    real space projection operators read in
  non local Contribution for L=           0  read in
    real space projection operators read in
  non local Contribution for L=           1  read in
    real space projection operators read in
  non local Contribution for L=           1  read in
    real space projection operators read in
  non local Contribution for L=           2  read in
    real space projection operators read in
  non local Contribution for L=           2  read in
    real space projection operators read in
    PAW grid and wavefunctions read in
 
   number of l-projection  operators is LMAX  =           6
   number of lm-projection operators is LMMAX =          18
 
 POTCAR:    PAW_PBE Mo_sv 02Feb2006               
   SHA256 =  2731df97e41766cc617548c5a8267718fdef1f509ac6bafa01e745abea2bdfaa Mo_sv/POTCAR          
   COPYR  = (c) Copyright 02Feb2006 Georg Kresse                                                    
   COPYR  = This file is part of the software VASP. Any use, copying, and all other rights are regul
   COPYR  = If you do not have a valid VASP license, you may not use, copy or distribute this file. 
   VRHFIN =Mo: 4p5s4d                                                                               
   LEXCH  = PE                                                                                      
   EATOM  =  1862.2866 eV,  136.8742 Ry                                                             
                                                                                                    
   TITEL  = PAW_PBE Mo_sv 02Feb2006                                                                 
   LULTRA =        F    use ultrasoft PP ?                                                          
   IUNSCR =        1    unscreen: 0-lin 1-nonlin 2-no                                               
   RPACOR =    2.200    partial core radius                                                         
   POMASS =   95.940; ZVAL   =   14.000    mass and valenz                                          
   RCORE  =    2.500    outmost cutoff radius                                                       
   RWIGS  =    2.750; RWIGS  =    1.455    wigner-seitz radius (au A)                               
   ENMAX  =  242.676; ENMIN  =  182.007 eV                                                          
   ICORE  =        3    local potential                                                             
   LCOR   =        T    correct aug charges                                                         
   LPAW   =        T    paw PP                                                                      
   EAUG   =  446.014                                                                                
   DEXC   =    0.000                                                                                
   RMAX   =    2.563    core radius for proj-oper                                                   
   RAUG   =    1.300    factor for augmentation sphere                                              
   RDEP   =    2.641    radius for radial grids                                                     
   RDEPT  =    2.031    core radius for aug-charge                                                  
                                                                                                    
   Atomic configuration                                                                             
   11 entries                                                                                       
     n  l   j            E        occ.                                                              
     1  0  0.50    -19819.0341   2.0000                                                             
     2  0  0.50     -2799.0127   2.0000                                                             
     2  1  1.50     -2502.0276   6.0000                                                             
     3  0  0.50      -476.4449   2.0000                                                             
     3  1  1.50      -379.1496   6.0000                                                             
     3  2  2.50      -220.9367  10.0000                                                             
     4  0  0.50       -64.3378   2.0000                                                             
     5  0  0.50        -4.0862   1.0000                                                             
     4  1  1.50       -38.4773   6.0000                                                             
     4  2  2.50        -3.7535   5.0000                                                             
     4  3  2.50        -1.3606   0.0000                                                             
   Description                                                                                      
     l       E           TYP  RCUT    TYP  RCUT                                                     
     0    -64.3377829     23  2.100                                                                 
     0     -4.0861640     23  2.400                                                                 
     1    -38.4772993     23  2.100                                                                 
     1     13.6058260     23  2.100                                                                 
     2     -3.7534941     23  2.400                                                                 
     2     -5.1140767     23  2.400                                                                 
     3     -4.0817478     23  2.500                                                                 
  local pseudopotential read in
  partial core-charges read in
  partial kinetic energy density read in
  atomic valenz-charges read in
  non local Contribution for L=           0  read in
    real space projection operators read in
  non local Contribution for L=           0  read in
    real space projection operators read in
  non local Contribution for L=           1  read in
    real space projection operators read in
  non local Contribution for L=           1  read in
    real space projection operators read in
  non local Contribution for L=           2  read in
    real space projection operators read in
  non local Contribution for L=           2  read in
    real space projection operators read in
    PAW grid and wavefunctions read in
 
   number of l-projection  operators is LMAX  =           6
   number of lm-projection operators is LMMAX =          18
 
 POTCAR:    PAW_PBE Ta_pv 07Sep2000               
   SHA256 =  00d0a14a36c127416459414afb8617d9754996fffa60a2465888e660b20a452f Ta_pv/POTCAR          
   COPYR  = (c) Copyright 07Sep2000 Georg Kresse                                                    
   COPYR  = This file is part of the software VASP. Any use, copying, and all other rights are regul
   COPYR  = If you do not have a valid VASP license, you may not use, copy or distribute this file. 
   VRHFIN =Ta:  5p6s5d                                                                              
   LEXCH  = PE                                                                                      
   EATOM  =  1047.1984 eV,   76.9669 Ry                                                             
                                                                                                    
   TITEL  = PAW_PBE Ta_pv 07Sep2000                                                                 
   LULTRA =        F    use ultrasoft PP ?                                                          
   IUNSCR =        1    unscreen: 0-lin 1-nonlin 2-no                                               
   RPACOR =    2.330    partial core radius                                                         
   POMASS =  180.948; ZVAL   =   11.000    mass and valenz                                          
   RCORE  =    2.500    outmost cutoff radius                                                       
   RWIGS  =    2.840; RWIGS  =    1.503    wigner-seitz radius (au A)                               
   ENMAX  =  223.667; ENMIN  =  167.750 eV                                                          
   RCLOC  =    2.205    cutoff for local pot                                                        
   LCOR   =        T    correct aug charges                                                         
   LPAW   =        T    paw PP                                                                      
   EAUG   =  377.421                                                                                
   DEXC   =    0.000                                                                                
   RMAX   =    2.551    core radius for proj-oper                                                   
   RAUG   =    1.300    factor for augmentation sphere                                              
   RDEP   =    2.526    radius for radial grids                                                     
   RDEPT  =    2.132    core radius for aug-charge                                                  
                                                                                                    
   Atomic configuration                                                                             
   15 entries                                                                                       
     n  l   j            E        occ.                                                              
     1  0  0.50    -67341.2801   2.0000                                                             
     2  0  0.50    -11566.9369   2.0000                                                             
     2  1  1.50    -10134.1175   6.0000                                                             
     3  0  0.50     -2648.5614   2.0000                                                             
     3  1  1.50     -2222.6006   6.0000                                                             
     3  2  2.50     -1726.3114  10.0000                                                             
     4  0  0.50      -538.6957   2.0000                                                             
     4  1  1.50      -399.0125   6.0000                                                             
     4  2  2.50      -220.3955  10.0000                                                             
     4  3  3.50       -23.0371  14.0000                                                             
     5  0  0.50       -71.2900   2.0000                                                             
     5  1  1.50       -37.8224   6.0000                                                             
     5  2  2.50        -2.6455   4.0000                                                             
     6  0  0.50        -4.9623   1.0000                                                             
     5  3  2.50        -1.3606   0.0000                                                             
   Description                                                                                      
     l       E           TYP  RCUT    TYP  RCUT                                                     
     1    -37.8224449     23  2.500                                                                 
     1      1.3605826     23  2.500                                                                 
     2     -2.6454718     23  2.500                                                                 
     2     -0.6258570     23  2.500                                                                 
     0     -4.9622674     23  2.500                                                                 
     0      4.7531427     23  2.500                                                                 
  local pseudopotential read in
  partial core-charges read in
  partial kinetic energy density read in
  atomic valenz-charges read in
  non local Contribution for L=           1  read in
    real space projection operators read in
  non local Contribution for L=           1  read in
    real space projection operators read in
  non local Contribution for L=           2  read in
    real space projection operators read in
  non local Contribution for L=           2  read in
    real space projection operators read in
  non local Contribution for L=           0  read in
    real space projection operators read in
  non local Contribution for L=           0  read in
    real space projection operators read in
    PAW grid and wavefunctions read in
 
   number of l-projection  operators is LMAX  =           6
   number of lm-projection operators is LMMAX =          18
 
 POTCAR:    PAW_PBE W_sv 04Sep2015                
   SHA256 =  931c2d770f65867ef30f3db3421922900fc0890ebac5c3e12f63b6a2064023d7 W_sv/POTCAR           
   COPYR  = (c) Copyright 04Sep2015 Georg Kresse                                                    
   COPYR  = This file is part of the software VASP. Any use, copying, and all other rights are regul
   COPYR  = If you do not have a valid VASP license, you may not use, copy or distribute this file. 
   VRHFIN =W : 5p6s5d                                                                               
   LEXCH  = PE                                                                                      
   EATOM  =  1865.5791 eV,  137.1162 Ry                                                             
                                                                                                    
   TITEL  = PAW_PBE W_sv 04Sep2015                                                                  
   LULTRA =        F    use ultrasoft PP ?                                                          
   IUNSCR =        1    unscreen: 0-lin 1-nonlin 2-no                                               
   RPACOR =    2.330    partial core radius                                                         
   POMASS =  183.850; ZVAL   =   14.000    mass and valenz                                          
   RCORE  =    2.500    outmost cutoff radius                                                       
   RWIGS  =    2.750; RWIGS  =    1.455    wigner-seitz radius (au A)                               
   ENMAX  =  223.057; ENMIN  =  167.293 eV                                                          
   ICORE  =        3    local potential                                                             
   LCOR   =        T    correct aug charges                                                         
   LPAW   =        T    paw PP                                                                      
   EAUG   =  373.438                                                                                
   DEXC   =    0.000                                                                                
   RMAX   =    2.565    core radius for proj-oper                                                   
   RAUG   =    1.300    factor for augmentation sphere                                              
   RDEP   =    2.539    radius for radial grids                                                     
   RDEPT  =    2.126    core radius for aug-charge                                                  
                                                                                                    
   Atomic configuration                                                                             
   15 entries                                                                                       
     n  l   j            E        occ.                                                              
     1  0  0.50    -69465.5834   2.0000                                                             
     2  0  0.50    -11986.2640   2.0000                                                             
     2  1  1.50    -10479.8613   6.0000                                                             
     3  0  0.50     -2759.0756   2.0000                                                             
     3  1  1.50     -2313.1855   6.0000                                                             
     3  2  2.50     -1801.1183  10.0000                                                             
     4  0  0.50      -567.6789   2.0000                                                             
     4  1  1.50      -421.4692   6.0000                                                             
     4  2  2.50      -236.3471  10.0000                                                             
     4  3  3.50       -31.2665  14.0000                                                             
     5  0  0.50       -77.1084   2.0000                                                             
     6  0  0.50        -5.1438   1.0000                                                             
     5  1  1.50       -41.3856   6.0000                                                             
     5  2  2.50        -3.3185   5.0000                                                             
     5  3  2.50        -1.3606   0.0000                                                             
   Description                                                                                      
     l       E           TYP  RCUT    TYP  RCUT                                                     
     0    -77.1084470     23  2.100                                                                 
     0     -5.1437956     23  2.300                                                                 
     1    -41.3855615     23  2.500                                                                 
     1     -2.7211652     23  2.500                                                                 
     2     -3.3185025     23  2.500                                                                 
     2     -1.5965151     23  2.500                                                                 
     3     -1.3605826     23  2.500                                                                 
  local pseudopotential read in
  partial core-charges read in
  partial kinetic energy density read in
  kinetic energy density of atom read in
  atomic valenz-charges read in
  non local Contribution for L=           0  read in
    real space projection operators read in
  non local Contribution for L=           0  read in
    real space projection operators read in
  non local Contribution for L=           1  read in
    real space projection operators read in
  non local Contribution for L=           1  read in
    real space projection operators read in
  non local Contribution for L=           2  read in
    real space projection operators read in
  non local Contribution for L=           2  read in
    real space projection operators read in
    PAW grid and wavefunctions read in
 
   number of l-projection  operators is LMAX  =           6
   number of lm-projection operators is LMMAX =          18
 
 -----------------------------------------------------------------------------
|                                                                             |
|               ----> ADVICE to this user running VASP <----                  |
|                                                                             |
|     You have a (more or less) 'large supercell' and for larger cells it     |
|     might be more efficient to use real-space projection operators.         |
|     Therefore, try LREAL= Auto in the INCAR file.                           |
|     Mind: For very accurate calculation, you might also keep the            |
|     reciprocal projection scheme (i.e. LREAL=.FALSE.).                      |
|                                                                             |
 -----------------------------------------------------------------------------

  PAW_PBE Nb_sv 25May2007               :
 energy of atom  1       EATOM=-1555.1913
 kinetic energy error for atom=    0.2155 (will be added to EATOM!!)
  PAW_PBE Mo_sv 02Feb2006               :
 energy of atom  2       EATOM=-1862.2866
 kinetic energy error for atom=    0.1102 (will be added to EATOM!!)
  PAW_PBE Ta_pv 07Sep2000               :
 energy of atom  3       EATOM=-1047.1984
 kinetic energy error for atom=    0.0394 (will be added to EATOM!!)
  PAW_PBE W_sv 04Sep2015                :
 energy of atom  4       EATOM=-1865.5791
 kinetic energy error for atom=    0.0589 (will be added to EATOM!!)
 
 
 POSCAR: Nb-Mo-Ta-W alloy
  positions in direct lattice
  No initial velocities read in
 exchange correlation table for  LEXCH =        8
   RHO(1)=    0.500       N(1)  =     2000
   RHO(2)=  100.500       N(2)  =     4000
 


--------------------------------------------------------------------------------------------------------


 ion  position               nearest neighbor table
   1  0.750  0.250  0.500-   4 2.85  16 2.85  17 2.85  32 2.85  34 2.85  43 2.85  47 2.85  54 2.85
                            42 3.29  33 3.29
   2  0.375  0.875  0.250-   3 2.85   6 2.85  11 2.85  13 2.85  18 2.85  20 2.85  23 2.85  48 2.85
                            35 3.29  35 3.29
   3  0.500  0.000  0.500-   2 2.85  17 2.85  24 2.85  28 2.85  35 2.85  50 2.85  54 2.85  56 2.85
                            33 3.29
   4  0.625  0.375  0.250-   1 2.85   7 2.85  31 2.85  36 2.85  42 2.85  53 2.85  55 2.85  57 2.85
                            32 3.29  41 3.29  34 3.29  32 3.29
   5  0.000  0.500  0.500-   9 2.85  19 2.85  34 2.85  37 2.85  47 2.85  58 2.85  61 2.85  63 2.85
                            40 3.29  42 3.29  40 3.29
   6  0.250  0.750  0.500-   2 2.85  12 2.85  14 2.85  19 2.85  35 2.85  38 2.85  49 2.85  63 2.85

   7  0.500  0.250  0.000-   4 2.85  17 2.85  24 2.85  32 2.85  45 2.85  50 2.85  54 2.85  64 2.85
                            39 3.29
   8  0.125  0.125  0.250-  10 2.85  13 2.85  15 2.85  20 2.85  27 2.85  39 2.85  51 2.85  62 2.85

   9  0.875  0.625  0.250-   5 2.85  25 2.85  26 2.85  29 2.85  36 2.85  40 2.85  42 2.85  52 2.85
                            34 3.29  41 3.29
  10  0.000  0.250  0.500-   8 2.85  16 2.85  34 2.85  37 2.85  43 2.85  46 2.85  47 2.85  61 2.85

  11  0.500  0.750  0.500-   2 2.85  12 2.85  28 2.85  30 2.85  35 2.85  38 2.85  41 2.85  56 2.85
                            31 3.29
  12  0.375  0.625  0.250-   6 2.85  11 2.85  18 2.85  21 2.85  31 2.85  48 2.85  53 2.85  60 2.85
                            41 3.29  38 3.29  38 3.29
  13  0.250  0.000  0.500-   2 2.85   8 2.85  14 2.85  24 2.85  35 2.85  46 2.85  49 2.85  50 2.85

  14  0.125  0.875  0.750-   6 2.85  13 2.85  15 2.85  18 2.85  20 2.85  25 2.85  29 2.85  51 2.85
                            35 3.29
  15  0.000  0.000  0.500-   8 2.85  14 2.85  16 2.85  22 2.85  43 2.85  46 2.85  49 2.85  59 2.85
                            33 3.29
  16  0.875  0.125  0.250-   1 2.85  10 2.85  15 2.85  27 2.85  33 2.85  44 2.85  51 2.85  57 2.85
                            43 3.29  34 3.29  43 3.29
  17  0.625  0.125  0.750-   1 2.85   3 2.85   7 2.85  23 2.85  33 2.85  44 2.85  55 2.85  57 2.85
                            43 3.29  32 3.29
  18  0.250  0.750  0.000-   2 2.85  12 2.85  14 2.85  19 2.85  35 2.85  38 2.85  49 2.85  63 2.85
                            21 3.29  48 3.29  25 3.29  20 3.29
  19  0.125  0.625  0.750-   5 2.85   6 2.85  18 2.85  21 2.85  25 2.85  29 2.85  40 2.85  60 2.85
                            37 3.29  58 3.29  38 3.29  63 3.29  63 3.29
  20  0.250  0.000  0.000-   2 2.85   8 2.85  14 2.85  24 2.85  35 2.85  46 2.85  49 2.85  50 2.85
                            18 3.29  23 3.29  39 3.29  51 3.29
  21  0.250  0.500  0.000-  12 2.85  19 2.85  37 2.85  38 2.85  45 2.85  61 2.85  63 2.85  64 2.85
                            53 3.29  60 3.29  39 3.29  40 3.29  18 3.29  60 3.29
  22  0.875  0.875  0.750-  15 2.85  25 2.85  26 2.85  29 2.85  33 2.85  44 2.85  51 2.85  52 2.85
                            43 3.29  28 3.29  58 3.29  59 3.29  59 3.29
  23  0.500  0.000  0.000-   2 2.85  17 2.85  24 2.85  28 2.85  35 2.85  50 2.85  54 2.85  56 2.85
                            20 3.29  44 3.29  48 3.29
  24  0.375  0.125  0.250-   3 2.85   7 2.85  13 2.85  20 2.85  23 2.85  39 2.85  55 2.85  62 2.85
                            54 3.29  45 3.29  50 3.29  50 3.29
  25  0.000  0.750  0.000-   9 2.85  14 2.85  19 2.85  22 2.85  49 2.85  58 2.85  59 2.85  63 2.85
                            18 3.29  51 3.29  26 3.29  29 3.29  40 3.29  29 3.29
  26  0.750  0.750  0.000-   9 2.85  22 2.85  28 2.85  30 2.85  41 2.85  56 2.85  58 2.85  59 2.85
                            48 3.29  52 3.29  36 3.29  25 3.29  44 3.29  52 3.29
  27  0.000  0.250  0.000-   8 2.85  16 2.85  34 2.85  37 2.85  43 2.85  46 2.85  47 2.85  61 2.85
                            39 3.29  51 3.29  57 3.29  40 3.29
  28  0.625  0.875  0.750-   3 2.85  11 2.85  23 2.85  26 2.85  33 2.85  44 2.85  48 2.85  52 2.85
                            30 3.29  22 3.29  35 3.29  56 3.29  56 3.29
  29  0.000  0.750  0.500-   9 2.85  14 2.85  19 2.85  22 2.85  49 2.85  58 2.85  59 2.85  63 2.85
                            52 3.29  25 3.29  25 3.29
  30  0.625  0.625  0.750-  11 2.85  26 2.85  31 2.85  36 2.85  42 2.85  48 2.85  52 2.85  53 2.85
                            32 3.29  28 3.29  38 3.29  41 3.29  58 3.29  41 3.29
  31  0.500  0.500  0.500-   4 2.85  12 2.85  30 2.85  32 2.85  38 2.85  41 2.85  45 2.85  64 2.85
                            11 3.29  53 3.29  55 3.29  60 3.29  42 3.29  53 3.29
  32  0.625  0.375  0.750-   1 2.85   7 2.85  31 2.85  36 2.85  42 2.85  53 2.85  55 2.85  57 2.85
                            47 3.29   4 3.29  17 3.29  30 3.29  64 3.29   4 3.29
  33  0.750  0.000  0.500-  16 2.85  17 2.85  22 2.85  28 2.85  43 2.85  54 2.85  56 2.85  59 2.85
                            44 3.29  52 3.29  15 3.29   1 3.29   3 3.29  44 3.29
  34  0.875  0.375  0.250-   1 2.85   5 2.85  10 2.85  27 2.85  36 2.85  40 2.85  42 2.85  57 2.85
                            16 3.29   9 3.29  47 3.29   4 3.29  61 3.29  47 3.29
  35  0.375  0.875  0.750-   3 2.85   6 2.85  11 2.85  13 2.85  18 2.85  20 2.85  23 2.85  48 2.85
                             2 3.29  28 3.29  38 3.29  14 3.29  50 3.29   2 3.29
  36  0.750  0.500  0.000-   4 2.85   9 2.85  30 2.85  32 2.85  34 2.85  41 2.85  47 2.85  58 2.85
                            42 3.29  40 3.29  53 3.29  57 3.29  26 3.29  42 3.29
  37  0.125  0.375  0.750-   5 2.85  10 2.85  21 2.85  27 2.85  39 2.85  40 2.85  60 2.85  62 2.85
                            47 3.29  19 3.29  61 3.29  46 3.29  64 3.29  61 3.29
  38  0.375  0.625  0.750-   6 2.85  11 2.85  18 2.85  21 2.85  31 2.85  48 2.85  53 2.85  60 2.85
                            35 3.29  12 3.29  30 3.29  19 3.29  64 3.29  12 3.29
  39  0.250  0.250  0.000-   8 2.85  24 2.85  37 2.85  45 2.85  46 2.85  50 2.85  61 2.85  64 2.85
                             7 3.29  27 3.29  20 3.29  62 3.29  21 3.29  62 3.29
  40  0.000  0.500  0.000-   9 2.85  19 2.85  34 2.85  37 2.85  47 2.85  58 2.85  61 2.85  63 2.85
                            21 3.29  25 3.29  27 3.29   5 3.29  36 3.29   5 3.29
  41  0.625  0.625  0.250-  11 2.85  26 2.85  31 2.85  36 2.85  42 2.85  48 2.85  52 2.85  53 2.85
                             9 3.29  30 3.29   4 3.29  12 3.29  56 3.29  30 3.29
  42  0.750  0.500  0.500-   4 2.85   9 2.85  30 2.85  32 2.85  34 2.85  41 2.85  47 2.85  58 2.85
                            36 3.29  31 3.29   1 3.29  52 3.29   5 3.29  36 3.29
  43  0.875  0.125  0.750-   1 2.85  10 2.85  15 2.85  27 2.85  33 2.85  44 2.85  51 2.85  57 2.85
                            22 3.29  46 3.29  47 3.29  16 3.29  17 3.29  16 3.29
  44  0.750  0.000  0.000-  16 2.85  17 2.85  22 2.85  28 2.85  43 2.85  54 2.85  56 2.85  59 2.85
                            51 3.29  23 3.29  33 3.29  57 3.29  26 3.29  33 3.29
  45  0.375  0.375  0.250-   7 2.85  21 2.85  31 2.85  39 2.85  53 2.85  55 2.85  60 2.85  62 2.85
                            61 3.29  24 3.29  64 3.29  64 3.29
  46  0.125  0.125  0.750-  10 2.85  13 2.85  15 2.85  20 2.85  27 2.85  39 2.85  51 2.85  62 2.85
                            50 3.29  37 3.29  43 3.29
  47  0.875  0.375  0.750-   1 2.85   5 2.85  10 2.85  27 2.85  36 2.85  40 2.85  42 2.85  57 2.85
                            34 3.29  32 3.29  43 3.29  37 3.29  58 3.29  34 3.29
  48  0.500  0.750  0.000-   2 2.85  12 2.85  28 2.85  30 2.85  35 2.85  38 2.85  41 2.85  56 2.85
                            18 3.29  23 3.29  53 3.29  26 3.29
  49  0.125  0.875  0.250-   6 2.85  13 2.85  15 2.85  18 2.85  20 2.85  25 2.85  29 2.85  51 2.85
                            59 3.29  63 3.29
  50  0.375  0.125  0.750-   3 2.85   7 2.85  13 2.85  20 2.85  23 2.85  39 2.85  55 2.85  62 2.85
                            46 3.29  35 3.29  24 3.29  64 3.29  24 3.29
  51  0.000  0.000  0.000-   8 2.85  14 2.85  16 2.85  22 2.85  43 2.85  46 2.85  49 2.85  59 2.85
                            44 3.29  25 3.29  27 3.29  20 3.29
  52  0.750  0.750  0.500-   9 2.85  22 2.85  28 2.85  30 2.85  41 2.85  56 2.85  58 2.85  59 2.85
                            42 3.29  26 3.29  33 3.29  29 3.29  26 3.29
  53  0.500  0.500  0.000-   4 2.85  12 2.85  30 2.85  32 2.85  38 2.85  41 2.85  45 2.85  64 2.85
                            21 3.29  36 3.29  48 3.29  31 3.29  31 3.29
  54  0.625  0.125  0.250-   1 2.85   3 2.85   7 2.85  23 2.85  33 2.85  44 2.85  55 2.85  57 2.85
                            56 3.29  24 3.29
  55  0.500  0.250  0.500-   4 2.85  17 2.85  24 2.85  32 2.85  45 2.85  50 2.85  54 2.85  64 2.85
                            62 3.29  31 3.29
  56  0.625  0.875  0.250-   3 2.85  11 2.85  23 2.85  26 2.85  33 2.85  44 2.85  48 2.85  52 2.85
                            41 3.29  28 3.29  54 3.29  59 3.29  28 3.29
  57  0.750  0.250  0.000-   4 2.85  16 2.85  17 2.85  32 2.85  34 2.85  43 2.85  47 2.85  54 2.85
                            44 3.29  36 3.29  27 3.29
  58  0.875  0.625  0.750-   5 2.85  25 2.85  26 2.85  29 2.85  36 2.85  40 2.85  42 2.85  52 2.85
                            19 3.29  30 3.29  47 3.29  22 3.29
  59  0.875  0.875  0.250-  15 2.85  25 2.85  26 2.85  29 2.85  33 2.85  44 2.85  51 2.85  52 2.85
                            22 3.29  49 3.29  56 3.29  22 3.29
  60  0.250  0.500  0.500-  12 2.85  19 2.85  37 2.85  38 2.85  45 2.85  61 2.85  63 2.85  64 2.85
                            62 3.29  21 3.29  31 3.29  21 3.29
  61  0.125  0.375  0.250-   5 2.85  10 2.85  21 2.85  27 2.85  39 2.85  40 2.85  60 2.85  62 2.85
                            45 3.29  34 3.29  37 3.29  63 3.29  37 3.29
  62  0.250  0.250  0.500-   8 2.85  24 2.85  37 2.85  45 2.85  46 2.85  50 2.85  61 2.85  64 2.85
                            60 3.29  39 3.29  55 3.29  39 3.29
  63  0.125  0.625  0.250-   5 2.85   6 2.85  18 2.85  21 2.85  25 2.85  29 2.85  40 2.85  60 2.85
                            49 3.29  19 3.29  61 3.29  19 3.29
  64  0.375  0.375  0.750-   7 2.85  21 2.85  31 2.85  39 2.85  53 2.85  55 2.85  60 2.85  62 2.85
                            50 3.29  37 3.29  38 3.29  32 3.29  45 3.29  45 3.29
 
  LATTYP: Found a simple tetragonal cell.
 ALAT       =    13.1600000000
 C/A-ratio  =     0.5000000000
  
  Lattice vectors:
  
 A1 = (  13.1600000000,   0.0000000000,   0.0000000000)
 A2 = (   0.0000000000,  13.1600000000,   0.0000000000)
 A3 = (   0.0000000000,   0.0000000000,   6.5800000000)


Analysis of symmetry for initial positions (statically):
=====================================================================
 Subroutine PRICEL returns:
 Original cell was already a primitive cell.
 

 Routine SETGRP: Setting up the symmetry group for a 
 simple tetragonal supercell.


 Subroutine GETGRP returns: Found  1 space group operations
 (whereof  1 operations were pure point group operations)
 out of a pool of 16 trial point group operations.


The static configuration has the point symmetry C_1 .


Analysis of symmetry for dynamics (positions and initial velocities):
=====================================================================
 Subroutine PRICEL returns:
 Original cell was already a primitive cell.
 

 Routine SETGRP: Setting up the symmetry group for a 
 simple tetragonal supercell.


 Subroutine GETGRP returns: Found  1 space group operations
 (whereof  1 operations were pure point group operations)
 out of a pool of 16 trial point group operations.


The dynamic configuration has the point symmetry C_1 .


 Subroutine INISYM returns: Found  1 space group operations
 (whereof  1 operations are pure point group operations),
 and found     1 'primitive' translations


----------------------------------------------------------------------------------------

                                     Primitive cell                                     

  volume of cell :    1139.5612

  direct lattice vectors                    reciprocal lattice vectors
    13.160000000  0.000000000  0.000000000     0.075987842  0.000000000  0.000000000
     0.000000000 13.160000000  0.000000000     0.000000000  0.075987842  0.000000000
     0.000000000  0.000000000  6.580000000     0.000000000  0.000000000  0.151975684

  length of vectors
    13.160000000 13.160000000  6.580000000     0.075987842  0.075987842  0.151975684

  position of ions in fractional coordinates (direct lattice)
     0.750000000  0.250000000  0.500000000
     0.375000000  0.875000000  0.250000000
     0.500000000  0.000000000  0.500000000
     0.625000000  0.375000000  0.250000000
     0.000000000  0.500000000  0.500000000
     0.250000000  0.750000000  0.500000000
     0.500000000  0.250000000  0.000000000
     0.125000000  0.125000000  0.250000000
     0.875000000  0.625000000  0.250000000
     0.000000000  0.250000000  0.500000000
     0.500000000  0.750000000  0.500000000
     0.375000000  0.625000000  0.250000000
     0.250000000  0.000000000  0.500000000
     0.125000000  0.875000000  0.750000000
     0.000000000  0.000000000  0.500000000
     0.875000000  0.125000000  0.250000000
     0.625000000  0.125000000  0.750000000
     0.250000000  0.750000000  0.000000000
     0.125000000  0.625000000  0.750000000
     0.250000000  0.000000000  0.000000000
     0.250000000  0.500000000  0.000000000
     0.875000000  0.875000000  0.750000000
     0.500000000  0.000000000  0.000000000
     0.375000000  0.125000000  0.250000000
     0.000000000  0.750000000  0.000000000
     0.750000000  0.750000000  0.000000000
     0.000000000  0.250000000  0.000000000
     0.625000000  0.875000000  0.750000000
     0.000000000  0.750000000  0.500000000
     0.625000000  0.625000000  0.750000000
     0.500000000  0.500000000  0.500000000
     0.625000000  0.375000000  0.750000000
     0.750000000  0.000000000  0.500000000
     0.875000000  0.375000000  0.250000000
     0.375000000  0.875000000  0.750000000
     0.750000000  0.500000000  0.000000000
     0.125000000  0.375000000  0.750000000
     0.375000000  0.625000000  0.750000000
     0.250000000  0.250000000  0.000000000
     0.000000000  0.500000000  0.000000000
     0.625000000  0.625000000  0.250000000
     0.750000000  0.500000000  0.500000000
     0.875000000  0.125000000  0.750000000
     0.750000000  0.000000000  0.000000000
     0.375000000  0.375000000  0.250000000
     0.125000000  0.125000000  0.750000000
     0.875000000  0.375000000  0.750000000
     0.500000000  0.750000000  0.000000000
     0.125000000  0.875000000  0.250000000
     0.375000000  0.125000000  0.750000000
     0.000000000  0.000000000  0.000000000
     0.750000000  0.750000000  0.500000000
     0.500000000  0.500000000  0.000000000
     0.625000000  0.125000000  0.250000000
     0.500000000  0.250000000  0.500000000
     0.625000000  0.875000000  0.250000000
     0.750000000  0.250000000  0.000000000
     0.875000000  0.625000000  0.750000000
     0.875000000  0.875000000  0.250000000
     0.250000000  0.500000000  0.500000000
     0.125000000  0.375000000  0.250000000
     0.250000000  0.250000000  0.500000000
     0.125000000  0.625000000  0.250000000
     0.375000000  0.375000000  0.750000000

  ion indices of the primitive-cell ions
   primitive index   ion index
                 1           1
                 2           2
                 3           3
                 4           4
                 5           5
                 6           6
                 7           7
                 8           8
                 9           9
                10          10
                11          11
                12          12
                13          13
                14          14
                15          15
                16          16
                17          17
                18          18
                19          19
                20          20
                21          21
                22          22
                23          23
                24          24
                25          25
                26          26
                27          27
                28          28
                29          29
                30          30
                31          31
                32          32
                33          33
                34          34
                35          35
                36          36
                37          37
                38          38
                39          39
                40          40
                41          41
                42          42
                43          43
                44          44
                45          45
                46          46
                47          47
                48          48
                49          49
                50          50
                51          51
                52          52
                53          53
                54          54
                55          55
                56          56
                57          57
                58          58
                59          59
                60          60
                61          61
                62          62
                63          63
                64          64

----------------------------------------------------------------------------------------

 
 
 KPOINTS: K-Spacing Value to Generate K-Mesh: 0.03

Automatic generation of k-mesh.
 Grid dimensions read from file:
 generate k-points for:    3    3    5

 Generating k-lattice:

  Cartesian coordinates                     Fractional coordinates (reciprocal lattice)
     0.025329281  0.000000000  0.000000000     0.333333333  0.000000000  0.000000000
     0.000000000  0.025329281  0.000000000     0.000000000  0.333333333  0.000000000
     0.000000000  0.000000000  0.030395137     0.000000000  0.000000000  0.200000000

  Length of vectors
     0.025329281  0.025329281  0.030395137

  Shift w.r.t. Gamma in fractional coordinates (k-lattice)
     0.000000000  0.000000000  0.000000000

 
 Subroutine IBZKPT returns following result:
 ===========================================
 
 Found     23 irreducible k-points:
 
 Following reciprocal coordinates:
            Coordinates               Weight
  0.000000  0.000000  0.000000      1.000000
  0.333333  0.000000  0.000000      2.000000
  0.000000  0.333333  0.000000      2.000000
  0.333333  0.333333  0.000000      2.000000
 -0.333333  0.333333  0.000000      2.000000
  0.000000  0.000000  0.200000      2.000000
  0.333333  0.000000  0.200000      2.000000
  0.000000  0.333333  0.200000      2.000000
 -0.333333  0.000000  0.200000      2.000000
  0.000000 -0.333333  0.200000      2.000000
  0.333333  0.333333  0.200000      2.000000
 -0.333333  0.333333  0.200000      2.000000
 -0.333333 -0.333333  0.200000      2.000000
  0.333333 -0.333333  0.200000      2.000000
  0.000000  0.000000  0.400000      2.000000
  0.333333  0.000000  0.400000      2.000000
  0.000000  0.333333  0.400000      2.000000
 -0.333333  0.000000  0.400000      2.000000
  0.000000 -0.333333  0.400000      2.000000
  0.333333  0.333333  0.400000      2.000000
 -0.333333  0.333333  0.400000      2.000000
 -0.333333 -0.333333  0.400000      2.000000
  0.333333 -0.333333  0.400000      2.000000
 
 Following cartesian coordinates:
            Coordinates               Weight
  0.000000  0.000000  0.000000      1.000000
  0.025329  0.000000  0.000000      2.000000
  0.000000  0.025329  0.000000      2.000000
  0.025329  0.025329  0.000000      2.000000
 -0.025329  0.025329  0.000000      2.000000
  0.000000  0.000000  0.030395      2.000000
  0.025329  0.000000  0.030395      2.000000
  0.000000  0.025329  0.030395      2.000000
 -0.025329  0.000000  0.030395      2.000000
  0.000000 -0.025329  0.030395      2.000000
  0.025329  0.025329  0.030395      2.000000
 -0.025329  0.025329  0.030395      2.000000
 -0.025329 -0.025329  0.030395      2.000000
  0.025329 -0.025329  0.030395      2.000000
  0.000000  0.000000  0.060790      2.000000
  0.025329  0.000000  0.060790      2.000000
  0.000000  0.025329  0.060790      2.000000
 -0.025329  0.000000  0.060790      2.000000
  0.000000 -0.025329  0.060790      2.000000
  0.025329  0.025329  0.060790      2.000000
 -0.025329  0.025329  0.060790      2.000000
 -0.025329 -0.025329  0.060790      2.000000
  0.025329 -0.025329  0.060790      2.000000
 


--------------------------------------------------------------------------------------------------------




 Dimension of arrays:
   k-points           NKPTS =     23   k-points in BZ     NKDIM =     23   number of bands    NBANDS=    500
   number of dos      NEDOS =    301   number of ions     NIONS =     64
   non local maximal  LDIM  =      6   non local SUM 2l+1 LMDIM =     18
   total plane-waves  NPLWV = 176400
   max r-space proj   IRMAX =      1   max aug-charges    IRDMAX=   9034
   dimension x,y,z NGX =    70 NGY =   70 NGZ =   36
   dimension x,y,z NGXF=   140 NGYF=  140 NGZF=   72
   support grid    NGXF=   140 NGYF=  140 NGZF=   72
   ions per type =              17  12  15  20
   NGX,Y,Z   is equivalent  to a cutoff of   8.84,  8.84,  9.10 a.u.
   NGXF,Y,Z  is equivalent  to a cutoff of  17.69, 17.69, 18.19 a.u.

 SYSTEM =  unknown system                          
 POSCAR =  Nb-Mo-Ta-W alloy                        

 Startparameter for this run:
   NWRITE =      2    write-flag & timer
   PREC   = accura    normal or accurate (medium, high low for compatibility)
   ISTART =      0    job   : 0-new  1-cont  2-samecut
   ICHARG =      2    charge: 1-file 2-atom 10-const
   ISPIN  =      1    spin polarized calculation?
   LNONCOLLINEAR =      F non collinear calculations
   LSORBIT =      F    spin-orbit coupling
   INIWAV =      1    electr: 0-lowe 1-rand  2-diag
   LASPH  =      F    aspherical Exc in radial PAW
 Electronic Relaxation 1
   ENCUT  =  250.0 eV  18.37 Ry    4.29 a.u.  16.97 16.97  8.48*2*pi/ulx,y,z
   ENINI  =  250.0     initial cutoff
   ENAUG  =  455.7 eV  augmentation charge cutoff
   NELM   =     80;   NELMIN=  2; NELMDL= -5     # of ELM steps 
   EDIFF  = 0.1E-07   stopping-criterion for ELM
   LREAL  =      F    real-space projection
   NLSPLINE    = F    spline interpolate recip. space projectors
   LCOMPAT=      F    compatible to vasp.4.4
   GGA_COMPAT  = T    GGA compatible to vasp.4.4-vasp.4.6
   LMAXPAW     = -100 max onsite density
   LMAXMIX     =    2 max onsite mixed and CHGCAR
   VOSKOWN=      0    Vosko Wilk Nusair interpolation
   ROPT   =    0.00000   0.00000   0.00000   0.00000
 Ionic relaxation
   EDIFFG = -.1E-01   stopping-criterion for IOM
   NSW    =      0    number of steps for IOM
   NBLOCK =      1;   KBLOCK =      1    inner block; outer block 
   IBRION =     -1    ionic relax: 0-MD 1-quasi-New 2-CG
   NFREE  =      0    steps in history (QN), initial steepest desc. (CG)
   ISIF   =      2    stress and relaxation
   IWAVPR =     10    prediction:  0-non 1-charg 2-wave 3-comb
   ISYM   =      2    0-nonsym 1-usesym 2-fastsym
   LCORR  =      T    Harris-Foulkes like correction to forces

   POTIM  = 0.5000    time-step for ionic-motion
   TEIN   =    0.0    initial temperature
   TEBEG  =    0.0;   TEEND  =   0.0 temperature during run
   SMASS  =  -3.00    Nose mass-parameter (am)
   estimated Nose-frequenzy (Omega)   =  0.10E-29 period in steps = 0.13E+47 mass=  -0.396E-26a.u.
   SCALEE = 1.0000    scale energy and forces
   NPACO  =    256;   APACO  = 10.0  distance and # of slots for P.C.
   PSTRESS=    0.0 pullay stress

  Mass of Ions in am
   POMASS =  92.91 95.94180.95183.85
  Ionic Valenz
   ZVAL   =  13.00 14.00 11.00 14.00
  Atomic Wigner-Seitz radii
   RWIGS  =  -1.00 -1.00 -1.00 -1.00
  virtual crystal weights 
   VCA    =   1.00  1.00  1.00  1.00
   NELECT =     834.0000    total number of electrons
   NUPDOWN=      -1.0000    fix difference up-down

 DOS related values:
   EMIN   =  10.00;   EMAX   =-10.00  energy-range for DOS
   EFERMI =   0.00
   ISMEAR =     0;   SIGMA  =   0.02  broadening in eV -4-tet -1-fermi 0-gaus

 Electronic relaxation 2 (details)
   IALGO  =     38    algorithm
   LDIAG  =      T    sub-space diagonalisation (order eigenvalues)
   LSUBROT=      F    optimize rotation matrix (better conditioning)
   TURBO    =      0    0=normal 1=particle mesh
   IRESTART =      0    0=no restart 2=restart with 2 vectors
   NREBOOT  =      0    no. of reboots
   NMIN     =      0    reboot dimension
   EREF     =   0.00    reference energy to select bands
   IMIX   =      4    mixing-type and parameters
     AMIX     =   0.40;   BMIX     =  1.00
     AMIX_MAG =   1.60;   BMIX_MAG =  1.00
     AMIN     =   0.10
     WC   =   100.;   INIMIX=   1;  MIXPRE=   1;  MAXMIX= -45

 Intra band minimization:
   WEIMIN = 0.0000     energy-eigenvalue tresh-hold
   EBREAK =  0.50E-11  absolut break condition
   DEPER  =   0.30     relativ break condition  

   TIME   =   0.40     timestep for ELM

  volume/ion in A,a.u.               =      17.81       120.16
  Fermi-wavevector in a.u.,A,eV,Ry     =   1.475313  2.787938 29.613756  2.176550
  Thomas-Fermi vector in A             =   2.589978
 
 Write flags
   LWAVE        =      F    write WAVECAR
   LDOWNSAMPLE  =      F    k-point downsampling of WAVECAR
   LCHARG       =      F    write CHGCAR
   LVTOT        =      F    write LOCPOT, total local potential
   LVHAR        =      F    write LOCPOT, Hartree potential only
   LELF         =      F    write electronic localiz. function (ELF)
   LORBIT       =      0    0 simple, 1 ext, 2 COOP (PROOUT), +10 PAW based schemes


 Dipole corrections
   LMONO  =      F    monopole corrections only (constant potential shift)
   LDIPOL =      F    correct potential (dipole corrections)
   IDIPOL =      0    1-x, 2-y, 3-z, 4-all directions 
   EPSILON=  1.0000000 bulk dielectric constant

 Core level calculations are selected ICORELEVEL =  1
 Exchange correlation treatment:
   GGA     =    PE    GGA type
   LEXCH   =     8    internal setting for exchange type
   LIBXC   =     F    Libxc                    
   VOSKOWN =     0    Vosko Wilk Nusair interpolation
   LHFCALC =     F    Hartree Fock is set to
   LHFONE  =     F    Hartree Fock one center treatment
   AEXX    =    0.0000 exact exchange contribution

 Linear response parameters
   LEPSILON=     F    determine dielectric tensor
   LRPA    =     F    only Hartree local field effects (RPA)
   LNABLA  =     F    use nabla operator in PAW spheres
   LVEL    =     F    velocity operator in full k-point grid
   CSHIFT  =0.1000    complex shift for real part using Kramers Kronig
   OMEGAMAX=  -1.0    maximum frequency
   DEG_THRESHOLD= 0.2000000E-02 threshold for treating states as degnerate
   RTIME   =   -0.100 relaxation time in fs
  (WPLASMAI=    0.000 imaginary part of plasma frequency in eV, 0.658/RTIME)
   DFIELD  = 0.0000000 0.0000000 0.0000000 field for delta impulse in time
 
  Optional k-point grid parameters
   LKPOINTS_OPT  =     F    use optional k-point grid
   KPOINTS_OPT_MODE=     1    mode for optional k-point grid
 
 Orbital magnetization related:
   ORBITALMAG=     F  switch on orbital magnetization
   LCHIMAG   =     F  perturbation theory with respect to B field
   DQ        =  0.001000  dq finite difference perturbation B field
   LLRAUG    =     F  two centre corrections for induced B field



--------------------------------------------------------------------------------------------------------


 Static calculation
 charge density and potential will be updated during run
 non-spin polarized calculation
 Variant of blocked Davidson
 Davidson routine will perform the subspace rotation
 perform sub-space diagonalisation
    after iterative eigenvector-optimisation
 modified Broyden-mixing scheme, WC =      100.0
 initial mixing is a Kerker type mixing with AMIX =  0.4000 and BMIX =      1.0000
 Hartree-type preconditioning will be used
 using additional bands           83
 reciprocal scheme for non local part
 use partial core corrections
 calculate Harris-corrections to forces 
   (improved forces if not selfconsistent)
 use gradient corrections 
 use of overlap-Matrix (Vanderbilt PP)
 Gauss-broadening in eV      SIGMA  =   0.02


--------------------------------------------------------------------------------------------------------


  energy-cutoff  :      250.00
  volume of cell :     1139.56
      direct lattice vectors                 reciprocal lattice vectors
    13.160000000  0.000000000  0.000000000     0.075987842  0.000000000  0.000000000
     0.000000000 13.160000000  0.000000000     0.000000000  0.075987842  0.000000000
     0.000000000  0.000000000  6.580000000     0.000000000  0.000000000  0.151975684

  length of vectors
    13.160000000 13.160000000  6.580000000     0.075987842  0.075987842  0.151975684


 
 k-points in units of 2pi/SCALE and weight: K-Spacing Value to Generate K-Mesh: 0.03
   0.00000000  0.00000000  0.00000000       0.022
   0.02532928  0.00000000  0.00000000       0.044
   0.00000000  0.02532928  0.00000000       0.044
   0.02532928  0.02532928  0.00000000       0.044
  -0.02532928  0.02532928  0.00000000       0.044
   0.00000000  0.00000000  0.03039514       0.044
   0.02532928  0.00000000  0.03039514       0.044
   0.00000000  0.02532928  0.03039514       0.044
  -0.02532928  0.00000000  0.03039514       0.044
   0.00000000 -0.02532928  0.03039514       0.044
   0.02532928  0.02532928  0.03039514       0.044
  -0.02532928  0.02532928  0.03039514       0.044
  -0.02532928 -0.02532928  0.03039514       0.044
   0.02532928 -0.02532928  0.03039514       0.044
   0.00000000  0.00000000  0.06079027       0.044
   0.02532928  0.00000000  0.06079027       0.044
   0.00000000  0.02532928  0.06079027       0.044
  -0.02532928  0.00000000  0.06079027       0.044
   0.00000000 -0.02532928  0.06079027       0.044
   0.02532928  0.02532928  0.06079027       0.044
  -0.02532928  0.02532928  0.06079027       0.044
  -0.02532928 -0.02532928  0.06079027       0.044
   0.02532928 -0.02532928  0.06079027       0.044
 
 k-points in reciprocal lattice and weights: K-Spacing Value to Generate K-Mesh: 0.03
   0.00000000  0.00000000  0.00000000       0.022
   0.33333333  0.00000000  0.00000000       0.044
   0.00000000  0.33333333  0.00000000       0.044
   0.33333333  0.33333333  0.00000000       0.044
  -0.33333333  0.33333333  0.00000000       0.044
   0.00000000  0.00000000  0.20000000       0.044
   0.33333333  0.00000000  0.20000000       0.044
   0.00000000  0.33333333  0.20000000       0.044
  -0.33333333  0.00000000  0.20000000       0.044
   0.00000000 -0.33333333  0.20000000       0.044
   0.33333333  0.33333333  0.20000000       0.044
  -0.33333333  0.33333333  0.20000000       0.044
  -0.33333333 -0.33333333  0.20000000       0.044
   0.33333333 -0.33333333  0.20000000       0.044
   0.00000000  0.00000000  0.40000000       0.044
   0.33333333  0.00000000  0.40000000       0.044
   0.00000000  0.33333333  0.40000000       0.044
  -0.33333333  0.00000000  0.40000000       0.044
   0.00000000 -0.33333333  0.40000000       0.044
   0.33333333  0.33333333  0.40000000       0.044
  -0.33333333  0.33333333  0.40000000       0.044
  -0.33333333 -0.33333333  0.40000000       0.044
   0.33333333 -0.33333333  0.40000000       0.044
 
 position of ions in fractional coordinates (direct lattice) 
   0.75000000  0.25000000  0.50000000
   0.37500000  0.87500000  0.25000000
   0.50000000  0.00000000  0.50000000
   0.62500000  0.37500000  0.25000000
   0.00000000  0.50000000  0.50000000
   0.25000000  0.75000000  0.50000000
   0.50000000  0.25000000  0.00000000
   0.12500000  0.12500000  0.25000000
   0.87500000  0.62500000  0.25000000
   0.00000000  0.25000000  0.50000000
   0.50000000  0.75000000  0.50000000
   0.37500000  0.62500000  0.25000000
   0.25000000  0.00000000  0.50000000
   0.12500000  0.87500000  0.75000000
   0.00000000  0.00000000  0.50000000
   0.87500000  0.12500000  0.25000000
   0.62500000  0.12500000  0.75000000
   0.25000000  0.75000000  0.00000000
   0.12500000  0.62500000  0.75000000
   0.25000000  0.00000000  0.00000000
   0.25000000  0.50000000  0.00000000
   0.87500000  0.87500000  0.75000000
   0.50000000  0.00000000  0.00000000
   0.37500000  0.12500000  0.25000000
   0.00000000  0.75000000  0.00000000
   0.75000000  0.75000000  0.00000000
   0.00000000  0.25000000  0.00000000
   0.62500000  0.87500000  0.75000000
   0.00000000  0.75000000  0.50000000
   0.62500000  0.62500000  0.75000000
   0.50000000  0.50000000  0.50000000
   0.62500000  0.37500000  0.75000000
   0.75000000  0.00000000  0.50000000
   0.87500000  0.37500000  0.25000000
   0.37500000  0.87500000  0.75000000
   0.75000000  0.50000000  0.00000000
   0.12500000  0.37500000  0.75000000
   0.37500000  0.62500000  0.75000000
   0.25000000  0.25000000  0.00000000
   0.00000000  0.50000000  0.00000000
   0.62500000  0.62500000  0.25000000
   0.75000000  0.50000000  0.50000000
   0.87500000  0.12500000  0.75000000
   0.75000000  0.00000000  0.00000000
   0.37500000  0.37500000  0.25000000
   0.12500000  0.12500000  0.75000000
   0.87500000  0.37500000  0.75000000
   0.50000000  0.75000000  0.00000000
   0.12500000  0.87500000  0.25000000
   0.37500000  0.12500000  0.75000000
   0.00000000  0.00000000  0.00000000
   0.75000000  0.75000000  0.50000000
   0.50000000  0.50000000  0.00000000
   0.62500000  0.12500000  0.25000000
   0.50000000  0.25000000  0.50000000
   0.62500000  0.87500000  0.25000000
   0.75000000  0.25000000  0.00000000
   0.87500000  0.62500000  0.75000000
   0.87500000  0.87500000  0.25000000
   0.25000000  0.50000000  0.50000000
   0.12500000  0.37500000  0.25000000
   0.25000000  0.25000000  0.50000000
   0.12500000  0.62500000  0.25000000
   0.37500000  0.37500000  0.75000000
 
 position of ions in cartesian coordinates  (Angst):
   9.87000000  3.29000000  3.29000000
   4.93500000 11.51500000  1.64500000
   6.58000000  0.00000000  3.29000000
   8.22500000  4.93500000  1.64500000
   0.00000000  6.58000000  3.29000000
   3.29000000  9.87000000  3.29000000
   6.58000000  3.29000000  0.00000000
   1.64500000  1.64500000  1.64500000
  11.51500000  8.22500000  1.64500000
   0.00000000  3.29000000  3.29000000
   6.58000000  9.87000000  3.29000000
   4.93500000  8.22500000  1.64500000
   3.29000000  0.00000000  3.29000000
   1.64500000 11.51500000  4.93500000
   0.00000000  0.00000000  3.29000000
  11.51500000  1.64500000  1.64500000
   8.22500000  1.64500000  4.93500000
   3.29000000  9.87000000  0.00000000
   1.64500000  8.22500000  4.93500000
   3.29000000  0.00000000  0.00000000
   3.29000000  6.58000000  0.00000000
  11.51500000 11.51500000  4.93500000
   6.58000000  0.00000000  0.00000000
   4.93500000  1.64500000  1.64500000
   0.00000000  9.87000000  0.00000000
   9.87000000  9.87000000  0.00000000
   0.00000000  3.29000000  0.00000000
   8.22500000 11.51500000  4.93500000
   0.00000000  9.87000000  3.29000000
   8.22500000  8.22500000  4.93500000
   6.58000000  6.58000000  3.29000000
   8.22500000  4.93500000  4.93500000
   9.87000000  0.00000000  3.29000000
  11.51500000  4.93500000  1.64500000
   4.93500000 11.51500000  4.93500000
   9.87000000  6.58000000  0.00000000
   1.64500000  4.93500000  4.93500000
   4.93500000  8.22500000  4.93500000
   3.29000000  3.29000000  0.00000000
   0.00000000  6.58000000  0.00000000
   8.22500000  8.22500000  1.64500000
   9.87000000  6.58000000  3.29000000
  11.51500000  1.64500000  4.93500000
   9.87000000  0.00000000  0.00000000
   4.93500000  4.93500000  1.64500000
   1.64500000  1.64500000  4.93500000
  11.51500000  4.93500000  4.93500000
   6.58000000  9.87000000  0.00000000
   1.64500000 11.51500000  1.64500000
   4.93500000  1.64500000  4.93500000
   0.00000000  0.00000000  0.00000000
   9.87000000  9.87000000  3.29000000
   6.58000000  6.58000000  0.00000000
   8.22500000  1.64500000  1.64500000
   6.58000000  3.29000000  3.29000000
   8.22500000 11.51500000  1.64500000
   9.87000000  3.29000000  0.00000000
  11.51500000  8.22500000  4.93500000
  11.51500000 11.51500000  1.64500000
   3.29000000  6.58000000  3.29000000
   1.64500000  4.93500000  1.64500000
   3.29000000  3.29000000  3.29000000
   1.64500000  8.22500000  1.64500000
   4.93500000  4.93500000  4.93500000
 


--------------------------------------------------------------------------------------------------------


 k-point   1 :   0.0000 0.0000 0.0000  plane waves:   10181
 k-point   2 :   0.3333 0.0000 0.0000  plane waves:   10238
 k-point   3 :   0.0000 0.3333 0.0000  plane waves:   10238
 k-point   4 :   0.3333 0.3333 0.0000  plane waves:   10248
 k-point   5 :  -0.3333 0.3333 0.0000  plane waves:   10248
 k-point   6 :   0.0000 0.0000 0.2000  plane waves:   10193
 k-point   7 :   0.3333 0.0000 0.2000  plane waves:   10246
 k-point   8 :   0.0000 0.3333 0.2000  plane waves:   10246
 k-point   9 :  -0.3333 0.0000 0.2000  plane waves:   10246
 k-point  10 :   0.0000-0.3333 0.2000  plane waves:   10246
 k-point  11 :   0.3333 0.3333 0.2000  plane waves:   10238
 k-point  12 :  -0.3333 0.3333 0.2000  plane waves:   10238
 k-point  13 :  -0.3333-0.3333 0.2000  plane waves:   10238
 k-point  14 :   0.3333-0.3333 0.2000  plane waves:   10238
 k-point  15 :   0.0000 0.0000 0.4000  plane waves:   10201
 k-point  16 :   0.3333 0.0000 0.4000  plane waves:   10223
 k-point  17 :   0.0000 0.3333 0.4000  plane waves:   10223
 k-point  18 :  -0.3333 0.0000 0.4000  plane waves:   10223
 k-point  19 :   0.0000-0.3333 0.4000  plane waves:   10223
 k-point  20 :   0.3333 0.3333 0.4000  plane waves:   10193
 k-point  21 :  -0.3333 0.3333 0.4000  plane waves:   10193
 k-point  22 :  -0.3333-0.3333 0.4000  plane waves:   10193
 k-point  23 :   0.3333-0.3333 0.4000  plane waves:   10193

 maximum and minimum number of plane-waves per node :       880      830

 maximum number of plane-waves:     10248
 maximum index in each direction: 
   IXMAX=   17   IYMAX=   17   IZMAX=    8
   IXMIN=  -17   IYMIN=  -17   IZMIN=   -8


 parallel 3D FFT for wavefunctions:
    minimum data exchange during FFTs selected (reduces bandwidth)
 parallel 3D FFT for charge:
    minimum data exchange during FFTs selected (reduces bandwidth)


 total amount of memory used by VASP MPI-rank0    90992. kBytes
=======================================================================

   base      :      30000. kBytes
   nonl-proj :      12216. kBytes
   fftplans  :       1504. kBytes
   grid      :       2835. kBytes
   one-center:         93. kBytes
   wavefun   :      44344. kBytes
 
     INWAV:  cpu time      0.0000: real time      0.0001
 Broyden mixing: mesh for mixing (old mesh)
   NGX = 33   NGY = 33   NGZ = 17
  (NGX  =140   NGY  =140   NGZ  = 72)
  gives a total of  18513 points

 initial charge density was supplied:
 charge density of overlapping atoms calculated
 number of electron     834.0000000 magnetization 
 keeping initial charge density in first step


--------------------------------------------------------------------------------------------------------


 Maximum index for augmentation-charges          505 (set IRDMAX)


--------------------------------------------------------------------------------------------------------


 First call to EWALD:  gamma=   0.170
 Maximum number of real-space cells 2x 2x 4
 Maximum number of reciprocal cells 3x 3x 2

    FEWALD:  cpu time      0.1292: real time      0.1297


--------------------------------------- Iteration      1(   1)  ---------------------------------------


    POTLOK:  cpu time      0.0297: real time      0.1362
    SETDIJ:  cpu time      0.0796: real time      0.0799
     EDDAV:  cpu time     62.5133: real time     62.9261
       DOS:  cpu time      0.1352: real time      0.1357
    --------------------------------------------
      LOOP:  cpu time     62.7578: real time     63.2779

 eigenvalue-minimisations  : 23328
 total energy-change (2. order) : 0.8163433E+04  (-0.3222580E+05)
 number of electron     834.0000000 magnetization 
 augmentation part      834.0000000 magnetization 

 Free energy of the ion-electron system (eV)
  ---------------------------------------------------
  alpha Z        PSCENC =      7374.76232059
  Ewald energy   TEWEN  =    -86595.75308348
  -Hartree energ DENC   =    -16420.11650609
  -exchange      EXHF   =         0.00000000
  -V(xc)+E(xc)   XCENC  =      3262.49258135
  PAW double counting   =     80531.87567909   -79288.12684735
  entropy T*S    EENTRO =        -0.00391879
  eigenvalues    EBANDS =     -2500.18998935
  atomic energy  EATOM  =    101798.49311993
  Solvation  Ediel_sol  =         0.00000000
  ---------------------------------------------------
  free energy    TOTEN  =      8163.43335590 eV

  energy without entropy =     8163.43727469  energy(sigma->0) =     8163.43531530


--------------------------------------------------------------------------------------------------------




--------------------------------------- Iteration      1(   2)  ---------------------------------------


     EDDAV:  cpu time     39.1761: real time     39.4472
       DOS:  cpu time      0.1969: real time      0.1997
    --------------------------------------------
      LOOP:  cpu time     39.3730: real time     39.6469

 eigenvalue-minimisations  : 23020
 total energy-change (2. order) :-0.8128873E+04  (-0.7892083E+04)
 number of electron     834.0000000 magnetization 
 augmentation part      834.0000000 magnetization 

 Free energy of the ion-electron system (eV)
  ---------------------------------------------------
  alpha Z        PSCENC =      7374.76232059
  Ewald energy   TEWEN  =    -86595.75308348
  -Hartree energ DENC   =    -16420.11650609
  -exchange      EXHF   =         0.00000000
  -V(xc)+E(xc)   XCENC  =      3262.49258135
  PAW double counting   =     80531.87567909   -79288.12684735
  entropy T*S    EENTRO =        -0.00602372
  eigenvalues    EBANDS =    -10629.06081864
  atomic energy  EATOM  =    101798.49311993
  Solvation  Ediel_sol  =         0.00000000
  ---------------------------------------------------
  free energy    TOTEN  =        34.56042169 eV

  energy without entropy =       34.56644541  energy(sigma->0) =       34.56343355


--------------------------------------------------------------------------------------------------------




--------------------------------------- Iteration      1(   3)  ---------------------------------------


     EDDAV:  cpu time     55.0325: real time     55.4073
       DOS:  cpu time      0.3882: real time      0.3900
    --------------------------------------------
      LOOP:  cpu time     55.4207: real time     55.7973

 eigenvalue-minimisations  : 33960
 total energy-change (2. order) :-0.7551871E+03  (-0.7088668E+03)
 number of electron     834.0000000 magnetization 
 augmentation part      834.0000000 magnetization 

 Free energy of the ion-electron system (eV)
  ---------------------------------------------------
  alpha Z        PSCENC =      7374.76232059
  Ewald energy   TEWEN  =    -86595.75308348
  -Hartree energ DENC   =    -16420.11650609
  -exchange      EXHF   =         0.00000000
  -V(xc)+E(xc)   XCENC  =      3262.49258135
  PAW double counting   =     80531.87567909   -79288.12684735
  entropy T*S    EENTRO =        -0.00849880
  eigenvalues    EBANDS =    -11384.24546190
  atomic energy  EATOM  =    101798.49311993
  Solvation  Ediel_sol  =         0.00000000
  ---------------------------------------------------
  free energy    TOTEN  =      -720.62669665 eV

  energy without entropy =     -720.61819785  energy(sigma->0) =     -720.62244725


--------------------------------------------------------------------------------------------------------




--------------------------------------- Iteration      1(   4)  ---------------------------------------


     EDDAV:  cpu time     94.4319: real time     95.1337
       DOS:  cpu time      0.0082: real time      0.0082
    --------------------------------------------
      LOOP:  cpu time     94.4400: real time     95.1419

 eigenvalue-minimisations  : 33928
 total energy-change (2. order) :-0.5795343E+02  (-0.5570848E+02)
 number of electron     834.0000000 magnetization 
 augmentation part      834.0000000 magnetization 

 Free energy of the ion-electron system (eV)
  ---------------------------------------------------
  alpha Z        PSCENC =      7374.76232059
  Ewald energy   TEWEN  =    -86595.75308348
  -Hartree energ DENC   =    -16420.11650609
  -exchange      EXHF   =         0.00000000
  -V(xc)+E(xc)   XCENC  =      3262.49258135
  PAW double counting   =     80531.87567909   -79288.12684735
  entropy T*S    EENTRO =        -0.01057563
  eigenvalues    EBANDS =    -11442.19681378
  atomic energy  EATOM  =    101798.49311993
  Solvation  Ediel_sol  =         0.00000000
  ---------------------------------------------------
  free energy    TOTEN  =      -778.58012537 eV

  energy without entropy =     -778.56954974  energy(sigma->0) =     -778.57483755


--------------------------------------------------------------------------------------------------------




--------------------------------------- Iteration      1(   5)  ---------------------------------------


     EDDAV:  cpu time     67.5674: real time     67.9230
       DOS:  cpu time      0.4612: real time      0.4635
    CHARGE:  cpu time      0.4587: real time      0.4607
    MIXING:  cpu time      0.0004: real time      0.0004
    --------------------------------------------
      LOOP:  cpu time     68.4878: real time     68.8476

 eigenvalue-minimisations  : 38592
 total energy-change (2. order) :-0.3628757E+01  (-0.3593961E+01)
 number of electron     833.9999719 magnetization 
 augmentation part      178.1425243 magnetization 

 Broyden mixing:
  rms(total) = 0.10870E+02    rms(broyden)= 0.10868E+02
  rms(prec ) = 0.11190E+02
  weight for this iteration     100.00

 Free energy of the ion-electron system (eV)
  ---------------------------------------------------
  alpha Z        PSCENC =      7374.76232059
  Ewald energy   TEWEN  =    -86595.75308348
  -Hartree energ DENC   =    -16420.11650609
  -exchange      EXHF   =         0.00000000
  -V(xc)+E(xc)   XCENC  =      3262.49258135
  PAW double counting   =     80531.87567909   -79288.12684735
  entropy T*S    EENTRO =        -0.01100499
  eigenvalues    EBANDS =    -11445.82514155
  atomic energy  EATOM  =    101798.49311993
  Solvation  Ediel_sol  =         0.00000000
  ---------------------------------------------------
  free energy    TOTEN  =      -782.20888250 eV

  energy without entropy =     -782.19787751  energy(sigma->0) =     -782.20338001


--------------------------------------------------------------------------------------------------------




--------------------------------------- Iteration      1(   6)  ---------------------------------------


    POTLOK:  cpu time      0.0120: real time      0.0122
    SETDIJ:  cpu time      0.0041: real time      0.0042
     EDDAV:  cpu time     37.9516: real time     38.1347
       DOS:  cpu time      0.0073: real time      0.0073
    CHARGE:  cpu time      0.4592: real time      0.4609
    MIXING:  cpu time      0.0026: real time      0.0027
    --------------------------------------------
      LOOP:  cpu time     38.4369: real time     38.6218

 eigenvalue-minimisations  : 28472
 total energy-change (2. order) : 0.2715197E+02  (-0.9572789E+01)
 number of electron     833.9999718 magnetization 
 augmentation part      184.7909748 magnetization 

 Broyden mixing:
  rms(total) = 0.41181E+01    rms(broyden)= 0.41172E+01
  rms(prec ) = 0.50570E+01
  weight for this iteration     100.00

 eigenvalues of (default mixing * dielectric matrix)
  average eigenvalue GAMMA=   1.4563
  1.4563

 Free energy of the ion-electron system (eV)
  ---------------------------------------------------
  alpha Z        PSCENC =      7374.76232059
  Ewald energy   TEWEN  =    -86595.75308348
  -Hartree energ DENC   =    -15510.27964604
  -exchange      EXHF   =         0.00000000
  -V(xc)+E(xc)   XCENC  =      3218.49190292
  PAW double counting   =     96226.97151245   -95096.83487957
  entropy T*S    EENTRO =        -0.01046916
  eigenvalues    EBANDS =    -12170.89769438
  atomic energy  EATOM  =    101798.49311993
  Solvation  Ediel_sol  =         0.00000000
  ---------------------------------------------------
  free energy    TOTEN  =      -755.05691674 eV

  energy without entropy =     -755.04644758  energy(sigma->0) =     -755.05168216


--------------------------------------------------------------------------------------------------------




--------------------------------------- Iteration      1(   7)  ---------------------------------------


    POTLOK:  cpu time      0.0171: real time      0.0174
    SETDIJ:  cpu time      0.0043: real time      0.0043
     EDDAV:  cpu time     57.8824: real time     58.1885
       DOS:  cpu time      0.4887: real time      0.4911
    CHARGE:  cpu time      0.4901: real time      0.4920
    MIXING:  cpu time      0.0007: real time      0.0007
    --------------------------------------------
      LOOP:  cpu time     58.8831: real time     59.1939

 eigenvalue-minimisations  : 32768
 total energy-change (2. order) :-0.2967152E+02  (-0.1404875E+02)
 number of electron     833.9999700 magnetization 
 augmentation part      184.3527300 magnetization 

 Broyden mixing:
  rms(total) = 0.33181E+01    rms(broyden)= 0.33153E+01
  rms(prec ) = 0.85508E+01
  weight for this iteration     100.00

 eigenvalues of (default mixing * dielectric matrix)
  average eigenvalue GAMMA=   1.0111
  1.6053  0.4169

 Free energy of the ion-electron system (eV)
  ---------------------------------------------------
  alpha Z        PSCENC =      7374.76232059
  Ewald energy   TEWEN  =    -86595.75308348
  -Hartree energ DENC   =    -15295.33919325
  -exchange      EXHF   =         0.00000000
  -V(xc)+E(xc)   XCENC  =      3203.90343602
  PAW double counting   =    105592.38277712  -104499.77463096
  entropy T*S    EENTRO =        -0.01158181
  eigenvalues    EBANDS =    -12363.39160202
  atomic energy  EATOM  =    101798.49311993
  Solvation  Ediel_sol  =         0.00000000
  ---------------------------------------------------
  free energy    TOTEN  =      -784.72843785 eV

  energy without entropy =     -784.71685604  energy(sigma->0) =     -784.72264695


--------------------------------------------------------------------------------------------------------




--------------------------------------- Iteration      1(   8)  ---------------------------------------


    POTLOK:  cpu time      0.0139: real time      0.0141
    SETDIJ:  cpu time      0.0044: real time      0.0044
     EDDAV:  cpu time     62.1641: real time     62.4886
       DOS:  cpu time      0.2613: real time      0.2625
    CHARGE:  cpu time      0.6561: real time      0.6587
    MIXING:  cpu time      0.1205: real time      0.1211
    --------------------------------------------
      LOOP:  cpu time     63.2202: real time     63.5494

 eigenvalue-minimisations  : 33152
 total energy-change (2. order) : 0.3984081E+02  (-0.9629666E+01)
 number of electron     833.9999712 magnetization 
 augmentation part      186.1677820 magnetization 

 Broyden mixing:
  rms(total) = 0.12862E+01    rms(broyden)= 0.12821E+01
  rms(prec ) = 0.25433E+01
  weight for this iteration     100.00

 eigenvalues of (default mixing * dielectric matrix)
  average eigenvalue GAMMA=   0.8871
  1.6807  0.6560  0.3245

 Free energy of the ion-electron system (eV)
  ---------------------------------------------------
  alpha Z        PSCENC =      7374.76232059
  Ewald energy   TEWEN  =    -86595.75308348
  -Hartree energ DENC   =    -15103.08679725
  -exchange      EXHF   =         0.00000000
  -V(xc)+E(xc)   XCENC  =      3196.43291014
  PAW double counting   =    109472.71768036  -108402.80502916
  entropy T*S    EENTRO =        -0.01224373
  eigenvalues    EBANDS =    -12485.63650058
  atomic energy  EATOM  =    101798.49311993
  Solvation  Ediel_sol  =         0.00000000
  ---------------------------------------------------
  free energy    TOTEN  =      -744.88762317 eV

  energy without entropy =     -744.87537945  energy(sigma->0) =     -744.88150131


--------------------------------------------------------------------------------------------------------




--------------------------------------- Iteration      1(   9)  ---------------------------------------


    POTLOK:  cpu time      0.0182: real time      0.0186
    SETDIJ:  cpu time      0.0039: real time      0.0039
     EDDAV:  cpu time     40.0812: real time     40.2858
       DOS:  cpu time      0.3606: real time      0.3622
    CHARGE:  cpu time      0.4424: real time      0.4440
    MIXING:  cpu time      0.0006: real time      0.0006
[...]
 -0.006  -0.011  -0.005   0.001  -0.001   0.004  -0.008   0.001   3.323   0.051   0.060   0.042   0.009  -1.409  -0.036  -0.024
 -0.007  -0.007  -0.001  -0.002   0.001   0.003   0.004  -0.008   0.051   3.391  -0.023   0.067   0.052  -0.036  -1.430   0.010
  0.000  -0.028   0.001  -0.000   0.002  -0.001   0.000  -0.004   0.060  -0.023   2.723  -0.024   0.002  -0.024   0.009  -1.247
 -0.006  -0.008   0.002  -0.006  -0.001  -0.012   0.005   0.004   0.042   0.067  -0.024   3.424  -0.042  -0.032  -0.042   0.010
  0.001  -0.011   0.002  -0.000  -0.005  -0.002   0.000   0.009   0.009   0.052   0.002  -0.042   2.791  -0.004  -0.020  -0.000
  0.004  -0.003   0.004  -0.000   0.001  -0.002   0.006  -0.002  -1.409  -0.036  -0.024  -0.032  -0.004   0.609   0.021   0.009
  0.005  -0.006   0.001   0.001  -0.000  -0.002  -0.003   0.006  -0.036  -1.430   0.009  -0.042  -0.020   0.021   0.615  -0.004
 -0.000   0.012  -0.000   0.000  -0.001   0.000  -0.000   0.001  -0.024   0.010  -1.247   0.010  -0.000   0.009  -0.004   0.579
  0.004  -0.005  -0.001   0.004   0.001   0.007  -0.003  -0.003  -0.032  -0.042   0.010  -1.440   0.017   0.020   0.024  -0.004
 -0.001   0.004  -0.001   0.000   0.003   0.000  -0.000  -0.003  -0.004  -0.021  -0.000   0.018  -1.273   0.001   0.007  -0.000


------------------------ aborting loop because EDIFF is reached ----------------------------------------


    CHARGE:  cpu time      0.4730: real time      0.4747
    FORLOC:  cpu time      0.0045: real time      0.0045
    FORNL :  cpu time     15.4375: real time     15.5219
    STRESS:  cpu time     11.8276: real time     11.8778
    FORCOR:  cpu time      0.0456: real time      0.0457
    FORHAR:  cpu time      0.1138: real time      0.1143
    MIXING:  cpu time      0.0102: real time      0.0103
    OFIELD:  cpu time      0.0000: real time      0.0000

  FORCE on cell =-STRESS in cart. coord.  units (eV):
  Direction    XX          YY          ZZ          XY          YZ          ZX
  --------------------------------------------------------------------------------------
  Alpha Z  7374.76232  7374.76232  7374.76232
  Ewald  -28967.39923-29006.60240-28622.19568  -119.88773   -22.14338   -20.51857
  Hartree  4923.12386  4882.96220  5264.77728  -115.15060   -18.17652   -17.68559
  E(xc)   -3829.50430 -3829.46985 -3829.61184     0.07760     0.01317    -0.01376
  Local    6615.06733  6692.63572  5925.15030   230.78213    39.33568    37.78487
  n-local -1279.27396 -1278.89244 -1276.32782     2.19032     0.77574     0.48442
  augment  2367.64505  2367.67545  2368.03704     0.84756     0.15288     0.19386
  Kinetic 12694.92949 12697.09025 12697.58269    -0.21555     0.49420    -0.36453
  Fock        0.00000     0.00000     0.00000     0.00000     0.00000     0.00000
  -------------------------------------------------------------------------------------
  Total    -100.64945   -99.83876   -97.82571    -1.35627     0.45177    -0.11931
  in kB    -141.50908  -140.36928  -137.53902    -1.90686     0.63518    -0.16774
  external pressure =     -139.81 kB  Pullay stress =        0.00 kB


 VOLUME and BASIS-vectors are now :
 -----------------------------------------------------------------------------
  energy-cutoff  :      250.00
  volume of cell :     1139.56
      direct lattice vectors                 reciprocal lattice vectors
    13.160000000  0.000000000  0.000000000     0.075987842  0.000000000  0.000000000
     0.000000000 13.160000000  0.000000000     0.000000000  0.075987842  0.000000000
     0.000000000  0.000000000  6.580000000     0.000000000  0.000000000  0.151975684

  length of vectors
    13.160000000 13.160000000  6.580000000     0.075987842  0.075987842  0.151975684


 FORCES acting on ions
    electron-ion (+dipol)            ewald-force                    non-local-force                 convergence-correction
 -----------------------------------------------------------------------------------------------
   -.298E+02 -.911E+02 -.193E+02   0.299E+02 0.911E+02 0.193E+02   -.309E+00 -.209E-01 -.334E-01   -.707E-04 -.675E-05 0.153E-04
   -.555E+02 0.573E+02 -.379E+02   0.556E+02 -.576E+02 0.370E+02   -.699E-01 0.357E+00 0.135E+00   0.767E-04 0.243E-04 -.129E-05
   -.472E+02 0.426E+02 -.305E+02   0.475E+02 -.424E+02 0.303E+02   -.748E-01 0.299E+00 0.633E-01   0.619E-04 0.379E-04 0.106E-04
   -.111E+03 -.148E+03 -.274E+02   0.111E+03 0.148E+03 0.271E+02   -.215E+00 -.352E+00 0.811E-02   0.524E-05 -.413E-04 -.300E-04
   0.122E+03 0.104E+03 0.670E+01   -.122E+03 -.104E+03 -.644E+01   0.253E+00 0.308E+00 -.568E-01   -.552E-05 0.347E-04 0.677E-04
   -.127E+03 0.265E+02 -.472E+02   0.127E+03 -.266E+02 0.469E+02   -.278E+00 -.299E+00 0.653E-01   0.108E-04 -.604E-04 0.401E-04
   -.101E+03 -.976E+02 0.302E+02   0.100E+03 0.974E+02 -.299E+02   0.448E+00 -.725E-01 0.638E-02   0.267E-04 -.501E-04 0.211E-04
   0.448E+02 -.739E+02 -.744E+00   -.449E+02 0.738E+02 0.304E+00   0.254E+00 -.541E-01 0.146E+00   -.199E-04 0.764E-04 -.305E-04
   0.136E+03 0.203E+03 0.152E+02   -.136E+03 -.203E+03 -.152E+02   0.407E+00 0.190E+00 -.276E-01   -.412E-04 0.726E-04 -.141E-04
   0.110E+03 -.626E+02 -.106E+02   -.110E+03 0.629E+02 0.109E+02   0.187E+00 -.117E+00 -.125E+00   0.206E-05 0.715E-04 0.249E-04
   -.286E+02 0.140E+03 -.385E+02   0.290E+02 -.139E+03 0.384E+02   0.233E+00 0.528E-01 -.298E-01   0.712E-04 -.165E-04 0.281E-04
   -.143E+03 0.296E+02 -.454E+02   0.143E+03 -.298E+02 0.448E+02   -.403E+00 -.125E+00 0.582E-01   0.126E-04 -.144E-04 -.368E-05
   -.318E+02 0.303E+02 -.219E+02   0.318E+02 -.300E+02 0.218E+02   0.912E-01 0.248E+00 -.107E+00   0.733E-04 0.800E-05 -.148E-05
   -.354E+02 -.918E+01 0.278E+02   0.354E+02 0.900E+01 -.271E+02   -.159E+00 -.761E-01 -.171E+00   -.715E-04 -.707E-04 -.395E-04
   0.935E+02 -.960E+02 -.197E+02   -.934E+02 0.957E+02 0.197E+02   -.185E-01 -.182E+00 0.313E-01   -.985E-04 -.781E-04 0.210E-04
   0.820E+02 -.574E+02 -.271E+02   -.816E+02 0.578E+02 0.264E+02   -.181E+00 -.108E+00 0.164E+00   -.620E-04 -.759E-05 -.728E-04
   -.121E+03 -.354E+02 0.111E+02   0.121E+03 0.360E+02 -.109E+02   -.332E+00 -.320E+00 -.129E-01   -.119E-04 -.365E-04 0.572E-04
   -.123E+03 0.377E+02 0.507E+02   0.122E+03 -.378E+02 -.505E+02   -.632E-01 -.211E-01 -.155E-01   0.330E-04 -.739E-04 -.480E-04
   0.711E+01 0.107E+03 -.795E+01   -.664E+01 -.107E+03 0.803E+01   -.302E+00 0.823E-01 0.444E-01   -.333E-04 -.587E-04 -.173E-04
   -.352E+02 0.301E-04 0.235E+02   0.350E+02 0.696E+00 -.235E+02   0.345E-01 -.282E+00 0.771E-01   0.110E-03 0.339E-04 0.151E-05
   -.182E+02 0.286E+02 0.503E+02   0.176E+02 -.293E+02 -.501E+02   0.274E+00 0.404E+00 -.348E-01   0.117E-04 0.156E-04 -.605E-04
   0.107E+03 -.922E+02 0.119E+02   -.107E+03 0.921E+02 -.117E+02   -.231E+00 -.480E+00 0.372E-01   -.130E-03 -.524E-04 0.178E-04
   -.549E+02 0.266E+02 0.328E+02   0.554E+02 -.261E+02 -.326E+02   -.319E+00 -.381E+00 -.906E-03   0.103E-03 0.603E-04 -.182E-04
   -.157E+02 -.342E+02 0.164E+02   0.154E+02 0.343E+02 -.164E+02   0.344E+00 0.157E+00 -.337E-01   0.126E-03 0.445E-04 -.201E-04
   0.598E+02 0.835E+02 0.264E+01   -.598E+02 -.838E+02 -.257E+01   0.435E-03 0.367E+00 -.737E-01   -.112E-03 -.343E-04 -.574E-04
   0.103E+03 0.150E+03 -.660E+01   -.103E+03 -.150E+03 0.655E+01   0.744E-01 0.192E+00 -.964E-01   -.221E-04 0.389E-04 -.462E-04
   0.888E+02 -.920E+02 0.116E+02   -.881E+02 0.926E+02 -.117E+02   -.345E+00 -.434E+00 -.759E-02   -.482E-04 0.894E-04 -.267E-04
   -.149E+02 0.133E+02 0.227E+02   0.146E+02 -.138E+02 -.224E+02   0.274E+00 -.398E-01 0.365E-01   0.113E-03 0.200E-04 0.540E-04
   0.511E+02 0.588E+02 -.272E+01   -.510E+02 -.589E+02 0.257E+01   -.383E+00 0.578E-01 0.116E+00   -.738E-04 -.256E-04 0.538E-04
   -.397E+00 0.138E+03 0.318E+02   0.267E-01 -.138E+03 -.313E+02   0.294E+00 0.289E+00 0.204E-01   0.595E-04 0.423E-04 0.103E-04
   -.142E+03 -.602E+02 -.323E+02   0.142E+03 0.601E+02 0.322E+02   -.343E+00 -.464E+00 -.534E-02   0.396E-04 0.188E-04 -.215E-05
   -.741E+02 -.118E+03 0.232E+02   0.739E+02 0.118E+03 -.230E+02   0.194E-02 -.308E-01 -.183E-01   0.236E-04 -.403E-04 0.262E-04
   -.122E+02 -.748E+02 -.240E+02   0.120E+02 0.744E+02 0.238E+02   -.755E-01 -.464E+00 0.409E-02   -.343E-04 -.440E-04 0.456E-04
   0.795E+02 -.692E+02 -.741E+00   -.799E+02 0.688E+02 0.258E+00   0.421E+00 -.123E+00 0.125E+00   -.125E-04 -.173E-04 -.585E-04
   -.429E+02 0.606E+02 0.322E+02   0.427E+02 -.610E+02 -.313E+02   0.183E+00 0.414E+00 0.810E-01   0.648E-04 -.456E-05 0.374E-06
   0.535E+02 0.297E+02 -.130E+02   -.527E+02 -.297E+02 0.126E+02   -.147E+00 -.116E+00 -.554E-02   -.311E-04 0.111E-04 -.125E-04
   0.641E+02 -.616E+01 -.290E+02   -.635E+02 0.617E+01 0.290E+02   -.669E-01 -.425E-01 -.221E-01   -.558E-04 0.247E-04 0.482E-04
   -.119E+03 0.164E+02 0.386E+02   0.119E+03 -.164E+02 -.379E+02   -.327E+00 -.179E+00 0.372E-01   -.593E-05 0.372E-05 -.193E-05
   0.341E+02 -.522E+02 0.182E+02   -.334E+02 0.522E+02 -.182E+02   -.201E+00 -.974E-01 0.462E-01   0.297E-04 0.492E-05 -.681E-05
   0.101E+03 0.850E+02 -.567E+01   -.101E+03 -.847E+02 0.545E+01   0.252E+00 0.181E+00 -.583E-01   -.105E-04 -.382E-04 -.669E-04
   -.237E+02 0.130E+03 -.318E+02   0.235E+02 -.130E+03 0.313E+02   0.368E-01 0.504E+00 0.196E-02   0.523E-04 0.315E-04 -.131E-04
   0.833E+02 0.344E+02 0.130E+02   -.830E+02 -.347E+02 -.126E+02   -.102E-01 0.400E+00 -.206E-01   -.300E-04 0.181E-04 0.136E-04
   0.795E+02 -.336E+02 0.231E+02   -.796E+02 0.339E+02 -.224E+02   0.429E+00 0.865E-01 -.503E-01   -.762E-04 -.502E-05 0.587E-04
   -.115E+02 -.701E+02 0.241E+02   0.113E+02 0.694E+02 -.238E+02   0.517E-01 -.177E-01 -.818E-01   -.480E-04 -.300E-04 -.458E-04
   -.882E+02 -.593E+02 0.812E+01   0.885E+02 0.598E+02 -.803E+01   -.456E+00 -.285E+00 0.578E-01   0.724E-04 -.439E-04 -.243E-04
   0.575E+02 -.893E+02 0.568E+00   -.578E+02 0.893E+02 -.328E+00   0.364E+00 0.773E-01 0.137E+00   -.227E-04 0.101E-03 0.379E-04
   0.961E+02 -.645E+02 0.552E+00   -.961E+02 0.638E+02 -.328E+00   0.834E-01 0.250E+00 0.102E+00   0.258E-04 -.388E-05 0.762E-04
   -.397E+02 0.136E+03 0.414E+02   0.401E+02 -.136E+03 -.414E+02   0.539E-01 0.118E+00 -.465E-01   0.917E-04 -.123E-04 -.311E-04
   -.205E+02 -.161E+02 -.297E+02   0.207E+02 0.163E+02 0.292E+02   -.483E+00 -.494E+00 -.196E+00   -.592E-04 -.460E-04 0.333E-04
   -.285E+02 -.233E+02 -.163E+02   0.288E+02 0.231E+02 0.164E+02   -.347E+00 0.214E+00 -.231E-01   0.133E-03 0.220E-04 0.167E-04
   0.105E+03 -.994E+02 0.212E+02   -.105E+03 0.990E+02 -.212E+02   0.229E+00 -.257E+00 -.791E-02   -.146E-03 -.789E-05 -.225E-04
   0.116E+03 0.149E+03 0.661E+01   -.117E+03 -.149E+03 -.655E+01   0.484E+00 0.200E+00 0.940E-01   -.261E-04 0.171E-04 0.475E-04
   -.177E+03 -.575E+02 0.410E+02   0.177E+03 0.569E+02 -.410E+02   -.445E+00 0.306E+00 -.244E-01   0.472E-04 -.255E-05 0.446E-05
   -.121E+03 -.284E+02 -.119E+02   0.121E+03 0.290E+02 0.117E+02   -.447E+00 -.457E+00 -.553E-01   -.299E-04 0.616E-05 -.604E-04
   -.139E+03 -.119E+03 -.324E+02   0.138E+03 0.119E+03 0.322E+02   -.537E+00 -.699E-01 -.736E-01   0.388E-04 -.427E-04 -.217E-04
   -.324E+02 0.221E+02 -.228E+02   0.321E+02 -.229E+02 0.224E+02   0.450E+00 0.321E+00 -.700E-01   0.628E-04 0.243E-05 -.455E-04
   -.231E+02 -.995E+02 0.208E+02   0.227E+02 0.995E+02 -.208E+02   0.335E+00 -.650E-01 0.219E-01   -.421E-04 -.386E-05 -.165E-04
   0.144E+03 0.200E+03 -.163E+02   -.145E+03 -.199E+03 0.164E+02   0.306E+00 0.208E+00 -.241E-01   -.300E-04 0.550E-04 0.189E-04
   0.113E+03 -.689E+02 -.120E+02   -.113E+03 0.685E+02 0.117E+02   0.440E-01 -.228E+00 -.176E-01   -.109E-03 -.396E-04 -.179E-04
   -.563E+02 -.364E+01 -.503E+02   0.561E+02 0.370E+01 0.501E+02   0.494E-02 -.442E+00 0.126E-01   -.690E-05 0.412E-04 0.627E-04
   0.106E+03 -.163E+01 0.370E+02   -.106E+03 0.124E+01 -.369E+02   0.438E+00 0.468E+00 -.270E-01   -.608E-04 -.104E-05 -.593E-04
   0.520E+02 -.574E+02 -.231E+02   -.520E+02 0.572E+02 0.231E+02   0.471E+00 0.369E+00 -.154E-01   0.820E-04 0.134E-04 0.646E-05
   0.368E+02 0.972E+02 0.788E+01   -.366E+02 -.970E+02 -.803E+01   0.499E-01 0.125E+00 -.380E-01   -.270E-04 -.218E-04 0.171E-04
   -.830E+02 -.750E+02 -.810E+01   0.829E+02 0.754E+02 0.803E+01   -.175E+00 -.278E+00 -.685E-01   0.232E-04 -.190E-04 0.254E-04
 -----------------------------------------------------------------------------------------------
   -.114E+00 0.234E+00 0.468E-01   -.284E-12 -.625E-12 0.103E-12   0.114E+00 -.234E+00 -.467E-01   0.197E-04 -.953E-05 -.322E-04
 
 
 POSITION                                       TOTAL-FORCE (eV/Angst)
 -----------------------------------------------------------------------------------
      9.87000      3.29000      3.29000        -0.110913     -0.002603     -0.018062
      4.93500     11.51500      1.64500         0.046315      0.069117     -0.747790
      6.58000      0.00000      3.29000         0.270146      0.476497     -0.182954
      8.22500      4.93500      1.64500        -0.227558     -0.364888     -0.228449
      0.00000      6.58000      3.29000         0.308337      0.375744      0.201646
      3.29000      9.87000      3.29000        -0.943826     -0.377413     -0.209705
      6.58000      3.29000      0.00000        -0.632646     -0.319073      0.244941
      1.64500      1.64500      1.64500         0.090003     -0.146709     -0.292800
     11.51500      8.22500      1.64500         0.255417      0.993135     -0.017617
      0.00000      3.29000      3.29000         0.334531      0.172923      0.099024
      6.58000      9.87000      3.29000         0.589263      0.460675     -0.103498
      4.93500      8.22500      1.64500        -0.419189     -0.271839     -0.578282
      3.29000      0.00000      3.29000         0.051757      0.600164     -0.154482
      1.64500     11.51500      4.93500        -0.186381     -0.250593      0.535093
      0.00000      0.00000      3.29000         0.035625     -0.500924      0.019321
     11.51500      1.64500      1.64500         0.249253      0.267359     -0.512195
      8.22500      1.64500      4.93500        -0.343390      0.322936      0.221326
      3.29000      9.87000      0.00000        -0.603999     -0.161566      0.215295
      1.64500      8.22500      4.93500         0.163737      0.082558      0.126398
      3.29000      0.00000      0.00000        -0.101905      0.413879      0.043334
      3.29000      6.58000      0.00000        -0.263538     -0.240995      0.151047
     11.51500     11.51500      4.93500         0.198659     -0.507337      0.219721
      6.58000      0.00000      0.00000         0.194610      0.106941      0.175384
      4.93500      1.64500      1.64500         0.005318      0.194043     -0.053368
      0.00000      9.87000      0.00000        -0.033771      0.068934     -0.000562
      9.87000      9.87000      0.00000         0.243146      0.573070     -0.143513
      0.00000      3.29000      0.00000         0.315080      0.162846     -0.140792
      8.22500     11.51500      4.93500        -0.027236     -0.538861      0.315138
      0.00000      9.87000      3.29000        -0.252640     -0.028116     -0.035846
      8.22500      8.22500      4.93500        -0.075588      0.442922      0.473271
      6.58000      6.58000      3.29000        -0.522191     -0.622710     -0.068323
      8.22500      4.93500      4.93500        -0.238690     -0.195416      0.230309
      9.87000      0.00000      3.29000        -0.331742     -0.839417     -0.194545
     11.51500      4.93500      1.64500         0.077880     -0.611850     -0.358868
      4.93500     11.51500      4.93500        -0.074924      0.020942      0.954165
      9.87000      6.58000      0.00000         0.644244     -0.082760     -0.428360
      1.64500      4.93500      4.93500         0.436816     -0.030675     -0.009658
      4.93500      8.22500      4.93500        -0.163687     -0.150705      0.687352
      3.29000      3.29000      0.00000         0.558882     -0.093473      0.099602
      0.00000      6.58000      0.00000         0.189138      0.462744     -0.275957
      8.22500      8.22500      1.64500        -0.100489      0.749471     -0.469829
      9.87000      6.58000      3.29000         0.360674      0.108366      0.405423
     11.51500      1.64500      4.93500         0.358248      0.354653      0.652333
      9.87000      0.00000      0.00000        -0.139417     -0.711124      0.157516
      4.93500      4.93500      1.64500        -0.187441      0.165965      0.152816
      1.64500      1.64500      4.93500         0.038481      0.066050      0.376979
     11.51500      4.93500      4.93500         0.057703     -0.418484      0.326075
      6.58000      9.87000      0.00000         0.412232      0.530074      0.044710
      1.64500     11.51500      1.64500        -0.363868     -0.323668     -0.632529
      4.93500      1.64500      4.93500        -0.012491      0.028029      0.054986
      0.00000      0.00000      0.00000        -0.047540     -0.575200      0.014110
      9.87000      9.87000      3.29000         0.405821      0.623918      0.154747
      6.58000      6.58000      0.00000        -0.376374     -0.332337      0.014600
      8.22500      1.64500      1.64500        -0.307243      0.048697     -0.208187
      6.58000      3.29000      3.29000        -0.693619     -0.193466     -0.192665
      8.22500     11.51500      1.64500         0.113431     -0.457197     -0.417620
      9.87000      3.29000      0.00000        -0.048045     -0.074299      0.011726
     11.51500      8.22500      4.93500        -0.108969      0.844941      0.040433
     11.51500     11.51500      1.64500         0.132360     -0.678333     -0.261578
      3.29000      6.58000      3.29000        -0.127203     -0.376516     -0.174957
      1.64500      4.93500      1.64500         0.469701      0.075957      0.011539
      3.29000      3.29000      3.29000         0.420976      0.132305      0.006879
      1.64500      8.22500      1.64500         0.313176      0.334539     -0.184059
      4.93500      4.93500      4.93500        -0.274447      0.148152     -0.140191
 -----------------------------------------------------------------------------------
    total drift:                               -0.000007     -0.000011      0.000066


--------------------------------------------------------------------------------------------------------



  FREE ENERGIE OF THE ION-ELECTRON SYSTEM (eV)
  ---------------------------------------------------
  free  energy   TOTEN  =      -743.01876155 eV

  energy  without entropy=     -743.01039022  energy(sigma->0) =     -743.01457588
 


--------------------------------------------------------------------------------------------------------


    POTLOK:  cpu time      0.0232: real time      0.0233


--------------------------------------------------------------------------------------------------------


     LOOP+:  cpu time   1208.3537: real time   1215.3742
    4ORBIT:  cpu time      0.0000: real time      0.0000

 total amount of memory used by VASP MPI-rank0    90992. kBytes
=======================================================================

   base      :      30000. kBytes
   nonl-proj :      12216. kBytes
   fftplans  :       1504. kBytes
   grid      :       2835. kBytes
   one-center:         93. kBytes
   wavefun   :      44344. kBytes
 
  
  
 General timing and accounting informations for this job:
 ========================================================
  
                  Total CPU time used (sec):     1252.728
                            User time (sec):     1238.784
                          System time (sec):       13.945
                         Elapsed time (sec):     1261.580
  
                   Maximum memory used (kb):      149432.
                   Average memory used (kb):          N/A
  
                          Minor page faults:        14725
                          Major page faults:            0
                 Voluntary context switches:          270
