 vasp.6.3.1 04May22 (build Jul 26 2022 04:02:40) complex                        
  
 executed on             LinuxIFC date 2023.11.30  13:32:41
 running on   48 total cores
 distrk:  each k-point on   48 cores,    1 groups
 distr:  one band on NCORE=  12 cores,    4 groups


--------------------------------------------------------------------------------------------------------


 INCAR:
   ISTART = 0
   NWRITE = 2
   PREC = Accurate
   ENCUT = 250
   GGA = PE
   NSW = 0
   ISIF = 2
   ISYM = 2
   NBLOCK = 1
   KBLOCK = 1
   IBRION = -1
   NELM = 80
   EDIFF = 1E-08
   EDIFFG = -0.01
   ALGO = Normal
   LDIAG = .TRUE.
   LREAL = .FALSE.
   ISMEAR = 0
   SIGMA = 0.02
   ICHARG = 2
   LPLANE = .TRUE.
   NPAR = 4
   LSCALU = .FALSE.
   NSIM = 4
   LWAVE = .FALSE.
   LCHARG = .FALSE.
   ICORELEVEL = 1

 POTCAR:    PAW_PBE Nb_sv 25May2007               
 POTCAR:    PAW_PBE Mo_sv 02Feb2006               
 POTCAR:    PAW_PBE Ta_pv 07Sep2000               
 POTCAR:    PAW_PBE W_sv 04Sep2015                
 POTCAR:    PAW_PBE Nb_sv 25May2007               
   SHA256 =  0e8fc07c9fcd1164cf2ade22d0399fd28f85e91cd773dfa6cf24839a48c95e24 Nb_sv/POTCAR          
   COPYR  = (c) Copyright 25May2007 Georg Kresse                                                    
   COPYR  = This file is part of the software VASP. Any use, copying, and all other rights are regul
   COPYR  = If you do not have a valid VASP license, you may not use, copy or distribute this file. 
   VRHFIN =Nb: 4p5s4d                                                                               
   LEXCH  = PE                                                                                      
   EATOM  =  1555.1913 eV,  114.3033 Ry                                                             
                                                                                                    
   TITEL  = PAW_PBE Nb_sv 25May2007                                                                 
   LULTRA =        F    use ultrasoft PP ?                                                          
   IUNSCR =        1    unscreen: 0-lin 1-nonlin 2-no                                               
   RPACOR =    1.800    partial core radius                                                         
   POMASS =   92.910; ZVAL   =   13.000    mass and valenz                                          
   RCORE  =    2.400    outmost cutoff radius                                                       
   RWIGS  =    2.400; RWIGS  =    1.270    wigner-seitz radius (au A)                               
   ENMAX  =  293.235; ENMIN  =  219.927 eV                                                          
   ICORE  =        3    local potential                                                             
   LCOR   =        T    correct aug charges                                                         
   LPAW   =        T    paw PP                                                                      
   EAUG   =  455.659                                                                                
   DEXC   =    0.000                                                                                
   RMAX   =    2.456    core radius for proj-oper                                                   
   RAUG   =    1.300    factor for augmentation sphere                                              
   RDEP   =    2.451    radius for radial grids                                                     
   RDEPT  =    1.956    core radius for aug-charge                                                  
                                                                                                    
   Atomic configuration                                                                             
   11 entries                                                                                       
     n  l   j            E        occ.                                                              
     1  0  0.50    -18805.2457   2.0000                                                             
     2  0  0.50     -2630.2869   2.0000                                                             
     2  1  1.50     -2348.4046   6.0000                                                             
     3  0  0.50      -438.8757   2.0000                                                             
     3  1  1.50      -346.7588   6.0000                                                             
     3  2  2.50      -196.2560  10.0000                                                             
     4  0  0.50       -58.3859   2.0000                                                             
     5  0  0.50        -3.9816   1.0000                                                             
     4  1  1.50       -34.5141   6.0000                                                             
     4  2  2.50        -3.0408   4.0000                                                             
     4  3  2.50        -1.3606   0.0000                                                             
   Description                                                                                      
     l       E           TYP  RCUT    TYP  RCUT                                                     
     0    -58.3859094     23  2.200                                                                 
     0     -3.9816262     23  2.200                                                                 
     1    -34.5140738     23  2.200                                                                 
     1     13.6058260     23  2.200                                                                 
     2     -3.0408010     23  2.200                                                                 
     2     -0.1283038     23  2.200                                                                 
     3     -1.3605826     23  2.400                                                                 
  local pseudopotential read in
  partial core-charges read in
  partial kinetic energy density read in
  atomic valenz-charges read in
  non local Contribution for L=           0  read in
    real space projection operators read in
  non local Contribution for L=           0  read in
    real space projection operators read in
  non local Contribution for L=           1  read in
    real space projection operators read in
  non local Contribution for L=           1  read in
    real space projection operators read in
  non local Contribution for L=           2  read in
    real space projection operators read in
  non local Contribution for L=           2  read in
    real space projection operators read in
    PAW grid and wavefunctions read in
 
   number of l-projection  operators is LMAX  =           6
   number of lm-projection operators is LMMAX =          18
 
 POTCAR:    PAW_PBE Mo_sv 02Feb2006               
   SHA256 =  2731df97e41766cc617548c5a8267718fdef1f509ac6bafa01e745abea2bdfaa Mo_sv/POTCAR          
   COPYR  = (c) Copyright 02Feb2006 Georg Kresse                                                    
   COPYR  = This file is part of the software VASP. Any use, copying, and all other rights are regul
   COPYR  = If you do not have a valid VASP license, you may not use, copy or distribute this file. 
   VRHFIN =Mo: 4p5s4d                                                                               
   LEXCH  = PE                                                                                      
   EATOM  =  1862.2866 eV,  136.8742 Ry                                                             
                                                                                                    
   TITEL  = PAW_PBE Mo_sv 02Feb2006                                                                 
   LULTRA =        F    use ultrasoft PP ?                                                          
   IUNSCR =        1    unscreen: 0-lin 1-nonlin 2-no                                               
   RPACOR =    2.200    partial core radius                                                         
   POMASS =   95.940; ZVAL   =   14.000    mass and valenz                                          
   RCORE  =    2.500    outmost cutoff radius                                                       
   RWIGS  =    2.750; RWIGS  =    1.455    wigner-seitz radius (au A)                               
   ENMAX  =  242.676; ENMIN  =  182.007 eV                                                          
   ICORE  =        3    local potential                                                             
   LCOR   =        T    correct aug charges                                                         
   LPAW   =        T    paw PP                                                                      
   EAUG   =  446.014                                                                                
   DEXC   =    0.000                                                                                
   RMAX   =    2.563    core radius for proj-oper                                                   
   RAUG   =    1.300    factor for augmentation sphere                                              
   RDEP   =    2.641    radius for radial grids                                                     
   RDEPT  =    2.031    core radius for aug-charge                                                  
                                                                                                    
   Atomic configuration                                                                             
   11 entries                                                                                       
     n  l   j            E        occ.                                                              
     1  0  0.50    -19819.0341   2.0000                                                             
     2  0  0.50     -2799.0127   2.0000                                                             
     2  1  1.50     -2502.0276   6.0000                                                             
     3  0  0.50      -476.4449   2.0000                                                             
     3  1  1.50      -379.1496   6.0000                                                             
     3  2  2.50      -220.9367  10.0000                                                             
     4  0  0.50       -64.3378   2.0000                                                             
     5  0  0.50        -4.0862   1.0000                                                             
     4  1  1.50       -38.4773   6.0000                                                             
     4  2  2.50        -3.7535   5.0000                                                             
     4  3  2.50        -1.3606   0.0000                                                             
   Description                                                                                      
     l       E           TYP  RCUT    TYP  RCUT                                                     
     0    -64.3377829     23  2.100                                                                 
     0     -4.0861640     23  2.400                                                                 
     1    -38.4772993     23  2.100                                                                 
     1     13.6058260     23  2.100                                                                 
     2     -3.7534941     23  2.400                                                                 
     2     -5.1140767     23  2.400                                                                 
     3     -4.0817478     23  2.500                                                                 
  local pseudopotential read in
  partial core-charges read in
  partial kinetic energy density read in
  atomic valenz-charges read in
  non local Contribution for L=           0  read in
    real space projection operators read in
  non local Contribution for L=           0  read in
    real space projection operators read in
  non local Contribution for L=           1  read in
    real space projection operators read in
  non local Contribution for L=           1  read in
    real space projection operators read in
  non local Contribution for L=           2  read in
    real space projection operators read in
  non local Contribution for L=           2  read in
    real space projection operators read in
    PAW grid and wavefunctions read in
 
   number of l-projection  operators is LMAX  =           6
   number of lm-projection operators is LMMAX =          18
 
 POTCAR:    PAW_PBE Ta_pv 07Sep2000               
   SHA256 =  00d0a14a36c127416459414afb8617d9754996fffa60a2465888e660b20a452f Ta_pv/POTCAR          
   COPYR  = (c) Copyright 07Sep2000 Georg Kresse                                                    
   COPYR  = This file is part of the software VASP. Any use, copying, and all other rights are regul
   COPYR  = If you do not have a valid VASP license, you may not use, copy or distribute this file. 
   VRHFIN =Ta:  5p6s5d                                                                              
   LEXCH  = PE                                                                                      
   EATOM  =  1047.1984 eV,   76.9669 Ry                                                             
                                                                                                    
   TITEL  = PAW_PBE Ta_pv 07Sep2000                                                                 
   LULTRA =        F    use ultrasoft PP ?                                                          
   IUNSCR =        1    unscreen: 0-lin 1-nonlin 2-no                                               
   RPACOR =    2.330    partial core radius                                                         
   POMASS =  180.948; ZVAL   =   11.000    mass and valenz                                          
   RCORE  =    2.500    outmost cutoff radius                                                       
   RWIGS  =    2.840; RWIGS  =    1.503    wigner-seitz radius (au A)                               
   ENMAX  =  223.667; ENMIN  =  167.750 eV                                                          
   RCLOC  =    2.205    cutoff for local pot                                                        
   LCOR   =        T    correct aug charges                                                         
   LPAW   =        T    paw PP                                                                      
   EAUG   =  377.421                                                                                
   DEXC   =    0.000                                                                                
   RMAX   =    2.551    core radius for proj-oper                                                   
   RAUG   =    1.300    factor for augmentation sphere                                              
   RDEP   =    2.526    radius for radial grids                                                     
   RDEPT  =    2.132    core radius for aug-charge                                                  
                                                                                                    
   Atomic configuration                                                                             
   15 entries                                                                                       
     n  l   j            E        occ.                                                              
     1  0  0.50    -67341.2801   2.0000                                                             
     2  0  0.50    -11566.9369   2.0000                                                             
     2  1  1.50    -10134.1175   6.0000                                                             
     3  0  0.50     -2648.5614   2.0000                                                             
     3  1  1.50     -2222.6006   6.0000                                                             
     3  2  2.50     -1726.3114  10.0000                                                             
     4  0  0.50      -538.6957   2.0000                                                             
     4  1  1.50      -399.0125   6.0000                                                             
     4  2  2.50      -220.3955  10.0000                                                             
     4  3  3.50       -23.0371  14.0000                                                             
     5  0  0.50       -71.2900   2.0000                                                             
     5  1  1.50       -37.8224   6.0000                                                             
     5  2  2.50        -2.6455   4.0000                                                             
     6  0  0.50        -4.9623   1.0000                                                             
     5  3  2.50        -1.3606   0.0000                                                             
   Description                                                                                      
     l       E           TYP  RCUT    TYP  RCUT                                                     
     1    -37.8224449     23  2.500                                                                 
     1      1.3605826     23  2.500                                                                 
     2     -2.6454718     23  2.500                                                                 
     2     -0.6258570     23  2.500                                                                 
     0     -4.9622674     23  2.500                                                                 
     0      4.7531427     23  2.500                                                                 
  local pseudopotential read in
  partial core-charges read in
  partial kinetic energy density read in
  atomic valenz-charges read in
  non local Contribution for L=           1  read in
    real space projection operators read in
  non local Contribution for L=           1  read in
    real space projection operators read in
  non local Contribution for L=           2  read in
    real space projection operators read in
  non local Contribution for L=           2  read in
    real space projection operators read in
  non local Contribution for L=           0  read in
    real space projection operators read in
  non local Contribution for L=           0  read in
    real space projection operators read in
    PAW grid and wavefunctions read in
 
   number of l-projection  operators is LMAX  =           6
   number of lm-projection operators is LMMAX =          18
 
 POTCAR:    PAW_PBE W_sv 04Sep2015                
   SHA256 =  931c2d770f65867ef30f3db3421922900fc0890ebac5c3e12f63b6a2064023d7 W_sv/POTCAR           
   COPYR  = (c) Copyright 04Sep2015 Georg Kresse                                                    
   COPYR  = This file is part of the software VASP. Any use, copying, and all other rights are regul
   COPYR  = If you do not have a valid VASP license, you may not use, copy or distribute this file. 
   VRHFIN =W : 5p6s5d                                                                               
   LEXCH  = PE                                                                                      
   EATOM  =  1865.5791 eV,  137.1162 Ry                                                             
                                                                                                    
   TITEL  = PAW_PBE W_sv 04Sep2015                                                                  
   LULTRA =        F    use ultrasoft PP ?                                                          
   IUNSCR =        1    unscreen: 0-lin 1-nonlin 2-no                                               
   RPACOR =    2.330    partial core radius                                                         
   POMASS =  183.850; ZVAL   =   14.000    mass and valenz                                          
   RCORE  =    2.500    outmost cutoff radius                                                       
   RWIGS  =    2.750; RWIGS  =    1.455    wigner-seitz radius (au A)                               
   ENMAX  =  223.057; ENMIN  =  167.293 eV                                                          
   ICORE  =        3    local potential                                                             
   LCOR   =        T    correct aug charges                                                         
   LPAW   =        T    paw PP                                                                      
   EAUG   =  373.438                                                                                
   DEXC   =    0.000                                                                                
   RMAX   =    2.565    core radius for proj-oper                                                   
   RAUG   =    1.300    factor for augmentation sphere                                              
   RDEP   =    2.539    radius for radial grids                                                     
   RDEPT  =    2.126    core radius for aug-charge                                                  
                                                                                                    
   Atomic configuration                                                                             
   15 entries                                                                                       
     n  l   j            E        occ.                                                              
     1  0  0.50    -69465.5834   2.0000                                                             
     2  0  0.50    -11986.2640   2.0000                                                             
     2  1  1.50    -10479.8613   6.0000                                                             
     3  0  0.50     -2759.0756   2.0000                                                             
     3  1  1.50     -2313.1855   6.0000                                                             
     3  2  2.50     -1801.1183  10.0000                                                             
     4  0  0.50      -567.6789   2.0000                                                             
     4  1  1.50      -421.4692   6.0000                                                             
     4  2  2.50      -236.3471  10.0000                                                             
     4  3  3.50       -31.2665  14.0000                                                             
     5  0  0.50       -77.1084   2.0000                                                             
     6  0  0.50        -5.1438   1.0000                                                             
     5  1  1.50       -41.3856   6.0000                                                             
     5  2  2.50        -3.3185   5.0000                                                             
     5  3  2.50        -1.3606   0.0000                                                             
   Description                                                                                      
     l       E           TYP  RCUT    TYP  RCUT                                                     
     0    -77.1084470     23  2.100                                                                 
     0     -5.1437956     23  2.300                                                                 
     1    -41.3855615     23  2.500                                                                 
     1     -2.7211652     23  2.500                                                                 
     2     -3.3185025     23  2.500                                                                 
     2     -1.5965151     23  2.500                                                                 
     3     -1.3605826     23  2.500                                                                 
  local pseudopotential read in
  partial core-charges read in
  partial kinetic energy density read in
  kinetic energy density of atom read in
  atomic valenz-charges read in
  non local Contribution for L=           0  read in
    real space projection operators read in
  non local Contribution for L=           0  read in
    real space projection operators read in
  non local Contribution for L=           1  read in
    real space projection operators read in
  non local Contribution for L=           1  read in
    real space projection operators read in
  non local Contribution for L=           2  read in
    real space projection operators read in
  non local Contribution for L=           2  read in
    real space projection operators read in
    PAW grid and wavefunctions read in
 
   number of l-projection  operators is LMAX  =           6
   number of lm-projection operators is LMMAX =          18
 
 -----------------------------------------------------------------------------
|                                                                             |
|               ----> ADVICE to this user running VASP <----                  |
|                                                                             |
|     You have a (more or less) 'large supercell' and for larger cells it     |
|     might be more efficient to use real-space projection operators.         |
|     Therefore, try LREAL= Auto in the INCAR file.                           |
|     Mind: For very accurate calculation, you might also keep the            |
|     reciprocal projection scheme (i.e. LREAL=.FALSE.).                      |
|                                                                             |
 -----------------------------------------------------------------------------

  PAW_PBE Nb_sv 25May2007               :
 energy of atom  1       EATOM=-1555.1913
 kinetic energy error for atom=    0.2155 (will be added to EATOM!!)
  PAW_PBE Mo_sv 02Feb2006               :
 energy of atom  2       EATOM=-1862.2866
 kinetic energy error for atom=    0.1102 (will be added to EATOM!!)
  PAW_PBE Ta_pv 07Sep2000               :
 energy of atom  3       EATOM=-1047.1984
 kinetic energy error for atom=    0.0394 (will be added to EATOM!!)
  PAW_PBE W_sv 04Sep2015                :
 energy of atom  4       EATOM=-1865.5791
 kinetic energy error for atom=    0.0589 (will be added to EATOM!!)
 
 
 POSCAR: Nb-Mo-Ta-W alloy
  positions in direct lattice
  No initial velocities read in
 exchange correlation table for  LEXCH =        8
   RHO(1)=    0.500       N(1)  =     2000
   RHO(2)=  100.500       N(2)  =     4000
 


--------------------------------------------------------------------------------------------------------


 ion  position               nearest neighbor table
   1  0.625  0.250  0.250-   2 2.85   6 2.85  13 2.85  14 2.85  15 2.85  22 2.85  24 2.85  26 2.85
                            21 3.29
   2  0.750  0.500  0.000-   1 2.85   3 2.85  10 2.85  16 2.85  20 2.85  23 2.85  28 2.85  30 2.85
                            22 3.29
   3  0.625  0.750  0.250-   2 2.85   6 2.85  13 2.85  14 2.85  15 2.85  22 2.85  24 2.85  26 2.85
                            23 3.29  23 3.29
   4  0.000  0.500  0.000-   5 2.85   7 2.85   8 2.85  10 2.85  16 2.85  18 2.85  20 2.85  30 2.85

   5  0.125  0.250  0.250-   4 2.85  11 2.85  12 2.85  17 2.85  25 2.85  29 2.85  31 2.85  32 2.85
                            18 3.29  21 3.29  18 3.29
   6  0.500  0.500  0.500-   1 2.85   3 2.85   9 2.85  19 2.85  21 2.85  23 2.85  27 2.85  28 2.85
                            22 3.29  22 3.29
   7  0.125  0.250  0.750-   4 2.85  11 2.85  12 2.85  17 2.85  25 2.85  29 2.85  31 2.85  32 2.85
                            19 3.29
   8  0.125  0.750  0.750-   4 2.85  11 2.85  12 2.85  17 2.85  25 2.85  29 2.85  31 2.85  32 2.85
                            18 3.29  20 3.29  18 3.29
   9  0.375  0.750  0.750-   6 2.85  11 2.85  14 2.85  17 2.85  22 2.85  26 2.85  31 2.85  32 2.85
                            23 3.29  19 3.29  19 3.29
  10  0.875  0.750  0.250-   2 2.85   4 2.85  12 2.85  13 2.85  15 2.85  24 2.85  25 2.85  29 2.85
                            16 3.29  18 3.29  20 3.29  20 3.29  16 3.29
  11  0.250  0.500  0.500-   5 2.85   7 2.85   8 2.85   9 2.85  18 2.85  19 2.85  21 2.85  27 2.85
                            29 3.29  31 3.29  32 3.29  31 3.29  32 3.29
  12  0.000  0.000  0.500-   5 2.85   7 2.85   8 2.85  10 2.85  16 2.85  18 2.85  20 2.85  30 2.85
                            25 3.29  29 3.29  15 3.29  32 3.29  25 3.29  29 3.29
  13  0.750  0.500  0.500-   1 2.85   3 2.85  10 2.85  16 2.85  20 2.85  23 2.85  28 2.85  30 2.85
                            29 3.29  15 3.29  15 3.29
  14  0.500  0.000  0.000-   1 2.85   3 2.85   9 2.85  19 2.85  21 2.85  23 2.85  27 2.85  28 2.85
                            24 3.29  26 3.29  22 3.29  17 3.29  26 3.29  22 3.29
  15  0.750  0.000  0.500-   1 2.85   3 2.85  10 2.85  16 2.85  20 2.85  23 2.85  28 2.85  30 2.85
                            24 3.29  26 3.29  13 3.29  12 3.29  24 3.29  13 3.29
  16  0.875  0.250  0.250-   2 2.85   4 2.85  12 2.85  13 2.85  15 2.85  24 2.85  25 2.85  29 2.85
                            10 3.29  30 3.29  30 3.29  10 3.29
  17  0.250  0.000  0.000-   5 2.85   7 2.85   8 2.85   9 2.85  18 2.85  19 2.85  21 2.85  27 2.85
                            25 3.29  14 3.29  31 3.29  32 3.29  32 3.29  31 3.29
  18  0.125  0.750  0.250-   4 2.85  11 2.85  12 2.85  17 2.85  25 2.85  29 2.85  31 2.85  32 2.85
                            27 3.29   8 3.29  10 3.29   5 3.29   8 3.29   5 3.29
  19  0.375  0.250  0.750-   6 2.85  11 2.85  14 2.85  17 2.85  22 2.85  26 2.85  31 2.85  32 2.85
                             7 3.29  28 3.29  21 3.29   9 3.29  21 3.29   9 3.29
  20  0.875  0.750  0.750-   2 2.85   4 2.85  12 2.85  13 2.85  15 2.85  24 2.85  25 2.85  29 2.85
                            10 3.29   8 3.29  23 3.29  30 3.29  10 3.29  30 3.29
  21  0.375  0.250  0.250-   6 2.85  11 2.85  14 2.85  17 2.85  22 2.85  26 2.85  31 2.85  32 2.85
                             5 3.29  27 3.29  19 3.29   1 3.29  19 3.29  27 3.29
  22  0.500  0.500  0.000-   1 2.85   3 2.85   9 2.85  19 2.85  21 2.85  23 2.85  27 2.85  28 2.85
                            14 3.29   6 3.29   2 3.29  31 3.29   6 3.29  14 3.29
  23  0.625  0.750  0.750-   2 2.85   6 2.85  13 2.85  14 2.85  15 2.85  22 2.85  24 2.85  26 2.85
                             9 3.29   3 3.29  20 3.29  28 3.29   3 3.29  28 3.29
  24  0.750  0.000  0.000-   1 2.85   3 2.85  10 2.85  16 2.85  20 2.85  23 2.85  28 2.85  30 2.85
                            25 3.29  15 3.29  14 3.29  15 3.29
  25  0.000  0.000  0.000-   5 2.85   7 2.85   8 2.85  10 2.85  16 2.85  18 2.85  20 2.85  30 2.85
                            17 3.29  24 3.29  12 3.29  12 3.29
  26  0.500  0.000  0.500-   1 2.85   3 2.85   9 2.85  19 2.85  21 2.85  23 2.85  27 2.85  28 2.85
                            15 3.29  14 3.29  32 3.29  14 3.29
  27  0.375  0.750  0.250-   6 2.85  11 2.85  14 2.85  17 2.85  22 2.85  26 2.85  31 2.85  32 2.85
                            18 3.29  21 3.29  21 3.29
  28  0.625  0.250  0.750-   2 2.85   6 2.85  13 2.85  14 2.85  15 2.85  22 2.85  24 2.85  26 2.85
                            19 3.29  23 3.29  30 3.29  23 3.29
  29  0.000  0.500  0.500-   5 2.85   7 2.85   8 2.85  10 2.85  16 2.85  18 2.85  20 2.85  30 2.85
                            12 3.29  13 3.29  11 3.29  12 3.29
  30  0.875  0.250  0.750-   2 2.85   4 2.85  12 2.85  13 2.85  15 2.85  24 2.85  25 2.85  29 2.85
                            20 3.29  28 3.29  16 3.29  16 3.29  20 3.29
  31  0.250  0.500  0.000-   5 2.85   7 2.85   8 2.85   9 2.85  18 2.85  19 2.85  21 2.85  27 2.85
                            11 3.29  22 3.29  17 3.29  11 3.29  17 3.29
  32  0.250  0.000  0.500-   5 2.85   7 2.85   8 2.85   9 2.85  18 2.85  19 2.85  21 2.85  27 2.85
                            12 3.29  17 3.29  26 3.29  11 3.29  17 3.29  11 3.29
 
  LATTYP: Found a simple tetragonal cell.
 ALAT       =     6.5800000000
 C/A-ratio  =     2.0000000000
  
  Lattice vectors:
  
 A1 = (   0.0000000000,   6.5800000000,   0.0000000000)
 A2 = (   0.0000000000,   0.0000000000,   6.5800000000)
 A3 = (  13.1600000000,   0.0000000000,   0.0000000000)


Analysis of symmetry for initial positions (statically):
=====================================================================
 Subroutine PRICEL returns:
 Original cell was already a primitive cell.
 

 Routine SETGRP: Setting up the symmetry group for a 
 simple tetragonal supercell.


 Subroutine GETGRP returns: Found  1 space group operations
 (whereof  1 operations were pure point group operations)
 out of a pool of 16 trial point group operations.


The static configuration has the point symmetry C_1 .


Analysis of symmetry for dynamics (positions and initial velocities):
=====================================================================
 Subroutine PRICEL returns:
 Original cell was already a primitive cell.
 

 Routine SETGRP: Setting up the symmetry group for a 
 simple tetragonal supercell.


 Subroutine GETGRP returns: Found  1 space group operations
 (whereof  1 operations were pure point group operations)
 out of a pool of 16 trial point group operations.


The dynamic configuration has the point symmetry C_1 .


 Subroutine INISYM returns: Found  1 space group operations
 (whereof  1 operations are pure point group operations),
 and found     1 'primitive' translations


----------------------------------------------------------------------------------------

                                     Primitive cell                                     

  volume of cell :     569.7806

  direct lattice vectors                    reciprocal lattice vectors
    13.160000000  0.000000000  0.000000000     0.075987842  0.000000000  0.000000000
     0.000000000  6.580000000  0.000000000     0.000000000  0.151975684  0.000000000
     0.000000000  0.000000000  6.580000000     0.000000000  0.000000000  0.151975684

  length of vectors
    13.160000000  6.580000000  6.580000000     0.075987842  0.151975684  0.151975684

  position of ions in fractional coordinates (direct lattice)
     0.625000000  0.250000000  0.250000000
     0.750000000  0.500000000  0.000000000
     0.625000000  0.750000000  0.250000000
     0.000000000  0.500000000  0.000000000
     0.125000000  0.250000000  0.250000000
     0.500000000  0.500000000  0.500000000
     0.125000000  0.250000000  0.750000000
     0.125000000  0.750000000  0.750000000
     0.375000000  0.750000000  0.750000000
     0.875000000  0.750000000  0.250000000
     0.250000000  0.500000000  0.500000000
     0.000000000  0.000000000  0.500000000
     0.750000000  0.500000000  0.500000000
     0.500000000  0.000000000  0.000000000
     0.750000000  0.000000000  0.500000000
     0.875000000  0.250000000  0.250000000
     0.250000000  0.000000000  0.000000000
     0.125000000  0.750000000  0.250000000
     0.375000000  0.250000000  0.750000000
     0.875000000  0.750000000  0.750000000
     0.375000000  0.250000000  0.250000000
     0.500000000  0.500000000  0.000000000
     0.625000000  0.750000000  0.750000000
     0.750000000  0.000000000  0.000000000
     0.000000000  0.000000000  0.000000000
     0.500000000  0.000000000  0.500000000
     0.375000000  0.750000000  0.250000000
     0.625000000  0.250000000  0.750000000
     0.000000000  0.500000000  0.500000000
     0.875000000  0.250000000  0.750000000
     0.250000000  0.500000000  0.000000000
     0.250000000  0.000000000  0.500000000

  ion indices of the primitive-cell ions
   primitive index   ion index
                 1           1
                 2           2
                 3           3
                 4           4
                 5           5
                 6           6
                 7           7
                 8           8
                 9           9
                10          10
                11          11
                12          12
                13          13
                14          14
                15          15
                16          16
                17          17
                18          18
                19          19
                20          20
                21          21
                22          22
                23          23
                24          24
                25          25
                26          26
                27          27
                28          28
                29          29
                30          30
                31          31
                32          32

----------------------------------------------------------------------------------------

 
 
 KPOINTS: K-Spacing Value to Generate K-Mesh: 0.03

Automatic generation of k-mesh.
 Grid dimensions read from file:
 generate k-points for:    3    5    5

 Generating k-lattice:

  Cartesian coordinates                     Fractional coordinates (reciprocal lattice)
     0.025329281  0.000000000  0.000000000     0.333333333  0.000000000  0.000000000
     0.000000000  0.030395137  0.000000000     0.000000000  0.200000000  0.000000000
     0.000000000  0.000000000  0.030395137     0.000000000  0.000000000  0.200000000

  Length of vectors
     0.025329281  0.030395137  0.030395137

  Shift w.r.t. Gamma in fractional coordinates (k-lattice)
     0.000000000  0.000000000  0.000000000

 
 Subroutine IBZKPT returns following result:
 ===========================================
 
 Found     38 irreducible k-points:
 
 Following reciprocal coordinates:
            Coordinates               Weight
  0.000000  0.000000  0.000000      1.000000
  0.333333  0.000000  0.000000      2.000000
  0.000000  0.200000  0.000000      2.000000
  0.000000  0.000000  0.200000      2.000000
  0.333333  0.200000  0.000000      2.000000
  0.333333  0.000000  0.200000      2.000000
  0.333333 -0.200000  0.000000      2.000000
  0.333333  0.000000 -0.200000      2.000000
  0.000000  0.400000  0.000000      2.000000
  0.000000  0.000000  0.400000      2.000000
  0.333333  0.400000  0.000000      2.000000
  0.333333  0.000000  0.400000      2.000000
  0.333333 -0.400000  0.000000      2.000000
  0.333333  0.000000 -0.400000      2.000000
  0.000000  0.200000  0.200000      2.000000
  0.000000 -0.200000  0.200000      2.000000
  0.333333  0.200000  0.200000      2.000000
  0.333333 -0.200000  0.200000      2.000000
  0.333333 -0.200000 -0.200000      2.000000
  0.333333  0.200000 -0.200000      2.000000
  0.000000  0.400000  0.200000      2.000000
  0.000000 -0.200000  0.400000      2.000000
  0.000000 -0.400000  0.200000      2.000000
  0.000000  0.200000  0.400000      2.000000
  0.333333  0.400000  0.200000      2.000000
  0.333333 -0.200000  0.400000      2.000000
  0.333333 -0.400000 -0.200000      2.000000
  0.333333  0.200000 -0.400000      2.000000
 -0.333333 -0.400000  0.200000      2.000000
 -0.333333  0.200000  0.400000      2.000000
 -0.333333  0.400000 -0.200000      2.000000
 -0.333333 -0.200000 -0.400000      2.000000
  0.000000  0.400000  0.400000      2.000000
  0.000000 -0.400000  0.400000      2.000000
  0.333333  0.400000  0.400000      2.000000
  0.333333 -0.400000  0.400000      2.000000
  0.333333 -0.400000 -0.400000      2.000000
  0.333333  0.400000 -0.400000      2.000000
 
 Following cartesian coordinates:
            Coordinates               Weight
  0.000000  0.000000  0.000000      1.000000
  0.025329  0.000000  0.000000      2.000000
  0.000000  0.030395  0.000000      2.000000
  0.000000  0.000000  0.030395      2.000000
  0.025329  0.030395  0.000000      2.000000
  0.025329  0.000000  0.030395      2.000000
  0.025329 -0.030395  0.000000      2.000000
  0.025329  0.000000 -0.030395      2.000000
  0.000000  0.060790  0.000000      2.000000
  0.000000  0.000000  0.060790      2.000000
  0.025329  0.060790  0.000000      2.000000
  0.025329  0.000000  0.060790      2.000000
  0.025329 -0.060790  0.000000      2.000000
  0.025329  0.000000 -0.060790      2.000000
  0.000000  0.030395  0.030395      2.000000
  0.000000 -0.030395  0.030395      2.000000
  0.025329  0.030395  0.030395      2.000000
  0.025329 -0.030395  0.030395      2.000000
  0.025329 -0.030395 -0.030395      2.000000
  0.025329  0.030395 -0.030395      2.000000
  0.000000  0.060790  0.030395      2.000000
  0.000000 -0.030395  0.060790      2.000000
  0.000000 -0.060790  0.030395      2.000000
  0.000000  0.030395  0.060790      2.000000
  0.025329  0.060790  0.030395      2.000000
  0.025329 -0.030395  0.060790      2.000000
  0.025329 -0.060790 -0.030395      2.000000
  0.025329  0.030395 -0.060790      2.000000
 -0.025329 -0.060790  0.030395      2.000000
 -0.025329  0.030395  0.060790      2.000000
 -0.025329  0.060790 -0.030395      2.000000
 -0.025329 -0.030395 -0.060790      2.000000
  0.000000  0.060790  0.060790      2.000000
  0.000000 -0.060790  0.060790      2.000000
  0.025329  0.060790  0.060790      2.000000
  0.025329 -0.060790  0.060790      2.000000
  0.025329 -0.060790 -0.060790      2.000000
  0.025329  0.060790 -0.060790      2.000000
 


--------------------------------------------------------------------------------------------------------




 Dimension of arrays:
   k-points           NKPTS =     38   k-points in BZ     NKDIM =     38   number of bands    NBANDS=    252
   number of dos      NEDOS =    301   number of ions     NIONS =     32
   non local maximal  LDIM  =      6   non local SUM 2l+1 LMDIM =     18
   total plane-waves  NPLWV =  90720
   max r-space proj   IRMAX =      1   max aug-charges    IRDMAX=   9287
   dimension x,y,z NGX =    70 NGY =   36 NGZ =   36
   dimension x,y,z NGXF=   140 NGYF=   72 NGZF=   72
   support grid    NGXF=   140 NGYF=   72 NGZF=   72
   ions per type =               9   8   6   9
   NGX,Y,Z   is equivalent  to a cutoff of   8.84,  9.10,  9.10 a.u.
   NGXF,Y,Z  is equivalent  to a cutoff of  17.69, 18.19, 18.19 a.u.

 SYSTEM =  unknown system                          
 POSCAR =  Nb-Mo-Ta-W alloy                        

 Startparameter for this run:
   NWRITE =      2    write-flag & timer
   PREC   = accura    normal or accurate (medium, high low for compatibility)
   ISTART =      0    job   : 0-new  1-cont  2-samecut
   ICHARG =      2    charge: 1-file 2-atom 10-const
   ISPIN  =      1    spin polarized calculation?
   LNONCOLLINEAR =      F non collinear calculations
   LSORBIT =      F    spin-orbit coupling
   INIWAV =      1    electr: 0-lowe 1-rand  2-diag
   LASPH  =      F    aspherical Exc in radial PAW
 Electronic Relaxation 1
   ENCUT  =  250.0 eV  18.37 Ry    4.29 a.u.  16.97  8.48  8.48*2*pi/ulx,y,z
   ENINI  =  250.0     initial cutoff
   ENAUG  =  455.7 eV  augmentation charge cutoff
   NELM   =     80;   NELMIN=  2; NELMDL= -5     # of ELM steps 
   EDIFF  = 0.1E-07   stopping-criterion for ELM
   LREAL  =      F    real-space projection
   NLSPLINE    = F    spline interpolate recip. space projectors
   LCOMPAT=      F    compatible to vasp.4.4
   GGA_COMPAT  = T    GGA compatible to vasp.4.4-vasp.4.6
   LMAXPAW     = -100 max onsite density
   LMAXMIX     =    2 max onsite mixed and CHGCAR
   VOSKOWN=      0    Vosko Wilk Nusair interpolation
   ROPT   =    0.00000   0.00000   0.00000   0.00000
 Ionic relaxation
   EDIFFG = -.1E-01   stopping-criterion for IOM
   NSW    =      0    number of steps for IOM
   NBLOCK =      1;   KBLOCK =      1    inner block; outer block 
   IBRION =     -1    ionic relax: 0-MD 1-quasi-New 2-CG
   NFREE  =      0    steps in history (QN), initial steepest desc. (CG)
   ISIF   =      2    stress and relaxation
   IWAVPR =     10    prediction:  0-non 1-charg 2-wave 3-comb
   ISYM   =      2    0-nonsym 1-usesym 2-fastsym
   LCORR  =      T    Harris-Foulkes like correction to forces

   POTIM  = 0.5000    time-step for ionic-motion
   TEIN   =    0.0    initial temperature
   TEBEG  =    0.0;   TEEND  =   0.0 temperature during run
   SMASS  =  -3.00    Nose mass-parameter (am)
   estimated Nose-frequenzy (Omega)   =  0.10E-29 period in steps = 0.13E+47 mass=  -0.396E-26a.u.
   SCALEE = 1.0000    scale energy and forces
   NPACO  =    256;   APACO  = 10.0  distance and # of slots for P.C.
   PSTRESS=    0.0 pullay stress

  Mass of Ions in am
   POMASS =  92.91 95.94180.95183.85
  Ionic Valenz
   ZVAL   =  13.00 14.00 11.00 14.00
  Atomic Wigner-Seitz radii
   RWIGS  =  -1.00 -1.00 -1.00 -1.00
  virtual crystal weights 
   VCA    =   1.00  1.00  1.00  1.00
   NELECT =     421.0000    total number of electrons
   NUPDOWN=      -1.0000    fix difference up-down

 DOS related values:
   EMIN   =  10.00;   EMAX   =-10.00  energy-range for DOS
   EFERMI =   0.00
   ISMEAR =     0;   SIGMA  =   0.02  broadening in eV -4-tet -1-fermi 0-gaus

 Electronic relaxation 2 (details)
   IALGO  =     38    algorithm
   LDIAG  =      T    sub-space diagonalisation (order eigenvalues)
   LSUBROT=      F    optimize rotation matrix (better conditioning)
   TURBO    =      0    0=normal 1=particle mesh
   IRESTART =      0    0=no restart 2=restart with 2 vectors
   NREBOOT  =      0    no. of reboots
   NMIN     =      0    reboot dimension
   EREF     =   0.00    reference energy to select bands
   IMIX   =      4    mixing-type and parameters
     AMIX     =   0.40;   BMIX     =  1.00
     AMIX_MAG =   1.60;   BMIX_MAG =  1.00
     AMIN     =   0.10
     WC   =   100.;   INIMIX=   1;  MIXPRE=   1;  MAXMIX= -45

 Intra band minimization:
   WEIMIN = 0.0000     energy-eigenvalue tresh-hold
   EBREAK =  0.99E-11  absolut break condition
   DEPER  =   0.30     relativ break condition  

   TIME   =   0.40     timestep for ELM

  volume/ion in A,a.u.               =      17.81       120.16
  Fermi-wavevector in a.u.,A,eV,Ry     =   1.480016  2.796824 29.802831  2.190446
  Thomas-Fermi vector in A             =   2.594102
 
 Write flags
   LWAVE        =      F    write WAVECAR
   LDOWNSAMPLE  =      F    k-point downsampling of WAVECAR
   LCHARG       =      F    write CHGCAR
   LVTOT        =      F    write LOCPOT, total local potential
   LVHAR        =      F    write LOCPOT, Hartree potential only
   LELF         =      F    write electronic localiz. function (ELF)
   LORBIT       =      0    0 simple, 1 ext, 2 COOP (PROOUT), +10 PAW based schemes


 Dipole corrections
   LMONO  =      F    monopole corrections only (constant potential shift)
   LDIPOL =      F    correct potential (dipole corrections)
   IDIPOL =      0    1-x, 2-y, 3-z, 4-all directions 
   EPSILON=  1.0000000 bulk dielectric constant

 Core level calculations are selected ICORELEVEL =  1
 Exchange correlation treatment:
   GGA     =    PE    GGA type
   LEXCH   =     8    internal setting for exchange type
   LIBXC   =     F    Libxc                    
   VOSKOWN =     0    Vosko Wilk Nusair interpolation
   LHFCALC =     F    Hartree Fock is set to
   LHFONE  =     F    Hartree Fock one center treatment
   AEXX    =    0.0000 exact exchange contribution

 Linear response parameters
   LEPSILON=     F    determine dielectric tensor
   LRPA    =     F    only Hartree local field effects (RPA)
   LNABLA  =     F    use nabla operator in PAW spheres
   LVEL    =     F    velocity operator in full k-point grid
   CSHIFT  =0.1000    complex shift for real part using Kramers Kronig
   OMEGAMAX=  -1.0    maximum frequency
   DEG_THRESHOLD= 0.2000000E-02 threshold for treating states as degnerate
   RTIME   =   -0.100 relaxation time in fs
  (WPLASMAI=    0.000 imaginary part of plasma frequency in eV, 0.658/RTIME)
   DFIELD  = 0.0000000 0.0000000 0.0000000 field for delta impulse in time
 
  Optional k-point grid parameters
   LKPOINTS_OPT  =     F    use optional k-point grid
   KPOINTS_OPT_MODE=     1    mode for optional k-point grid
 
 Orbital magnetization related:
   ORBITALMAG=     F  switch on orbital magnetization
   LCHIMAG   =     F  perturbation theory with respect to B field
   DQ        =  0.001000  dq finite difference perturbation B field
   LLRAUG    =     F  two centre corrections for induced B field



--------------------------------------------------------------------------------------------------------


 Static calculation
 charge density and potential will be updated during run
 non-spin polarized calculation
 Variant of blocked Davidson
 Davidson routine will perform the subspace rotation
 perform sub-space diagonalisation
    after iterative eigenvector-optimisation
 modified Broyden-mixing scheme, WC =      100.0
 initial mixing is a Kerker type mixing with AMIX =  0.4000 and BMIX =      1.0000
 Hartree-type preconditioning will be used
 using additional bands           41
 reciprocal scheme for non local part
 use partial core corrections
 calculate Harris-corrections to forces 
   (improved forces if not selfconsistent)
 use gradient corrections 
 use of overlap-Matrix (Vanderbilt PP)
 Gauss-broadening in eV      SIGMA  =   0.02


--------------------------------------------------------------------------------------------------------


  energy-cutoff  :      250.00
  volume of cell :      569.78
      direct lattice vectors                 reciprocal lattice vectors
    13.160000000  0.000000000  0.000000000     0.075987842  0.000000000  0.000000000
     0.000000000  6.580000000  0.000000000     0.000000000  0.151975684  0.000000000
     0.000000000  0.000000000  6.580000000     0.000000000  0.000000000  0.151975684

  length of vectors
    13.160000000  6.580000000  6.580000000     0.075987842  0.151975684  0.151975684


 
 k-points in units of 2pi/SCALE and weight: K-Spacing Value to Generate K-Mesh: 0.03
   0.00000000  0.00000000  0.00000000       0.013
   0.02532928  0.00000000  0.00000000       0.027
   0.00000000  0.03039514  0.00000000       0.027
   0.00000000  0.00000000  0.03039514       0.027
   0.02532928  0.03039514  0.00000000       0.027
   0.02532928  0.00000000  0.03039514       0.027
   0.02532928 -0.03039514  0.00000000       0.027
   0.02532928  0.00000000 -0.03039514       0.027
   0.00000000  0.06079027  0.00000000       0.027
   0.00000000  0.00000000  0.06079027       0.027
   0.02532928  0.06079027  0.00000000       0.027
   0.02532928  0.00000000  0.06079027       0.027
   0.02532928 -0.06079027  0.00000000       0.027
   0.02532928  0.00000000 -0.06079027       0.027
   0.00000000  0.03039514  0.03039514       0.027
   0.00000000 -0.03039514  0.03039514       0.027
   0.02532928  0.03039514  0.03039514       0.027
   0.02532928 -0.03039514  0.03039514       0.027
   0.02532928 -0.03039514 -0.03039514       0.027
   0.02532928  0.03039514 -0.03039514       0.027
   0.00000000  0.06079027  0.03039514       0.027
   0.00000000 -0.03039514  0.06079027       0.027
   0.00000000 -0.06079027  0.03039514       0.027
   0.00000000  0.03039514  0.06079027       0.027
   0.02532928  0.06079027  0.03039514       0.027
   0.02532928 -0.03039514  0.06079027       0.027
   0.02532928 -0.06079027 -0.03039514       0.027
   0.02532928  0.03039514 -0.06079027       0.027
  -0.02532928 -0.06079027  0.03039514       0.027
  -0.02532928  0.03039514  0.06079027       0.027
  -0.02532928  0.06079027 -0.03039514       0.027
  -0.02532928 -0.03039514 -0.06079027       0.027
   0.00000000  0.06079027  0.06079027       0.027
   0.00000000 -0.06079027  0.06079027       0.027
   0.02532928  0.06079027  0.06079027       0.027
   0.02532928 -0.06079027  0.06079027       0.027
   0.02532928 -0.06079027 -0.06079027       0.027
   0.02532928  0.06079027 -0.06079027       0.027
 
 k-points in reciprocal lattice and weights: K-Spacing Value to Generate K-Mesh: 0.03
   0.00000000  0.00000000  0.00000000       0.013
   0.33333333  0.00000000  0.00000000       0.027
   0.00000000  0.20000000  0.00000000       0.027
   0.00000000  0.00000000  0.20000000       0.027
   0.33333333  0.20000000  0.00000000       0.027
   0.33333333  0.00000000  0.20000000       0.027
   0.33333333 -0.20000000  0.00000000       0.027
   0.33333333  0.00000000 -0.20000000       0.027
   0.00000000  0.40000000  0.00000000       0.027
   0.00000000  0.00000000  0.40000000       0.027
   0.33333333  0.40000000  0.00000000       0.027
   0.33333333  0.00000000  0.40000000       0.027
   0.33333333 -0.40000000  0.00000000       0.027
   0.33333333  0.00000000 -0.40000000       0.027
   0.00000000  0.20000000  0.20000000       0.027
   0.00000000 -0.20000000  0.20000000       0.027
   0.33333333  0.20000000  0.20000000       0.027
   0.33333333 -0.20000000  0.20000000       0.027
   0.33333333 -0.20000000 -0.20000000       0.027
   0.33333333  0.20000000 -0.20000000       0.027
   0.00000000  0.40000000  0.20000000       0.027
   0.00000000 -0.20000000  0.40000000       0.027
   0.00000000 -0.40000000  0.20000000       0.027
   0.00000000  0.20000000  0.40000000       0.027
   0.33333333  0.40000000  0.20000000       0.027
   0.33333333 -0.20000000  0.40000000       0.027
   0.33333333 -0.40000000 -0.20000000       0.027
   0.33333333  0.20000000 -0.40000000       0.027
  -0.33333333 -0.40000000  0.20000000       0.027
  -0.33333333  0.20000000  0.40000000       0.027
  -0.33333333  0.40000000 -0.20000000       0.027
  -0.33333333 -0.20000000 -0.40000000       0.027
   0.00000000  0.40000000  0.40000000       0.027
   0.00000000 -0.40000000  0.40000000       0.027
   0.33333333  0.40000000  0.40000000       0.027
   0.33333333 -0.40000000  0.40000000       0.027
   0.33333333 -0.40000000 -0.40000000       0.027
   0.33333333  0.40000000 -0.40000000       0.027
 
 position of ions in fractional coordinates (direct lattice) 
   0.62500000  0.25000000  0.25000000
   0.75000000  0.50000000  0.00000000
   0.62500000  0.75000000  0.25000000
   0.00000000  0.50000000  0.00000000
   0.12500000  0.25000000  0.25000000
   0.50000000  0.50000000  0.50000000
   0.12500000  0.25000000  0.75000000
   0.12500000  0.75000000  0.75000000
   0.37500000  0.75000000  0.75000000
   0.87500000  0.75000000  0.25000000
   0.25000000  0.50000000  0.50000000
   0.00000000  0.00000000  0.50000000
   0.75000000  0.50000000  0.50000000
   0.50000000  0.00000000  0.00000000
   0.75000000  0.00000000  0.50000000
   0.87500000  0.25000000  0.25000000
   0.25000000  0.00000000  0.00000000
   0.12500000  0.75000000  0.25000000
   0.37500000  0.25000000  0.75000000
   0.87500000  0.75000000  0.75000000
   0.37500000  0.25000000  0.25000000
   0.50000000  0.50000000  0.00000000
   0.62500000  0.75000000  0.75000000
   0.75000000  0.00000000  0.00000000
   0.00000000  0.00000000  0.00000000
   0.50000000  0.00000000  0.50000000
   0.37500000  0.75000000  0.25000000
   0.62500000  0.25000000  0.75000000
   0.00000000  0.50000000  0.50000000
   0.87500000  0.25000000  0.75000000
   0.25000000  0.50000000  0.00000000
   0.25000000  0.00000000  0.50000000
 
 position of ions in cartesian coordinates  (Angst):
   8.22500000  1.64500000  1.64500000
   9.87000000  3.29000000  0.00000000
   8.22500000  4.93500000  1.64500000
   0.00000000  3.29000000  0.00000000
   1.64500000  1.64500000  1.64500000
   6.58000000  3.29000000  3.29000000
   1.64500000  1.64500000  4.93500000
   1.64500000  4.93500000  4.93500000
   4.93500000  4.93500000  4.93500000
  11.51500000  4.93500000  1.64500000
   3.29000000  3.29000000  3.29000000
   0.00000000  0.00000000  3.29000000
   9.87000000  3.29000000  3.29000000
   6.58000000  0.00000000  0.00000000
   9.87000000  0.00000000  3.29000000
  11.51500000  1.64500000  1.64500000
   3.29000000  0.00000000  0.00000000
   1.64500000  4.93500000  1.64500000
   4.93500000  1.64500000  4.93500000
  11.51500000  4.93500000  4.93500000
   4.93500000  1.64500000  1.64500000
   6.58000000  3.29000000  0.00000000
   8.22500000  4.93500000  4.93500000
   9.87000000  0.00000000  0.00000000
   0.00000000  0.00000000  0.00000000
   6.58000000  0.00000000  3.29000000
   4.93500000  4.93500000  1.64500000
   8.22500000  1.64500000  4.93500000
   0.00000000  3.29000000  3.29000000
  11.51500000  1.64500000  4.93500000
   3.29000000  3.29000000  0.00000000
   3.29000000  0.00000000  3.29000000
 


--------------------------------------------------------------------------------------------------------


 k-point   1 :   0.0000 0.0000 0.0000  plane waves:    5077
 k-point   2 :   0.3333 0.0000 0.0000  plane waves:    5118
 k-point   3 :   0.0000 0.2000 0.0000  plane waves:    5099
 k-point   4 :   0.0000 0.0000 0.2000  plane waves:    5099
 k-point   5 :   0.3333 0.2000 0.0000  plane waves:    5140
 k-point   6 :   0.3333 0.0000 0.2000  plane waves:    5140
 k-point   7 :   0.3333-0.2000 0.0000  plane waves:    5140
 k-point   8 :   0.3333 0.0000-0.2000  plane waves:    5140
 k-point   9 :   0.0000 0.4000 0.0000  plane waves:    5119
 k-point  10 :   0.0000 0.0000 0.4000  plane waves:    5119
 k-point  11 :   0.3333 0.4000 0.0000  plane waves:    5127
 k-point  12 :   0.3333 0.0000 0.4000  plane waves:    5127
 k-point  13 :   0.3333-0.4000 0.0000  plane waves:    5127
 k-point  14 :   0.3333 0.0000-0.4000  plane waves:    5127
 k-point  15 :   0.0000 0.2000 0.2000  plane waves:    5124
 k-point  16 :   0.0000-0.2000 0.2000  plane waves:    5124
 k-point  17 :   0.3333 0.2000 0.2000  plane waves:    5117
 k-point  18 :   0.3333-0.2000 0.2000  plane waves:    5117
 k-point  19 :   0.3333-0.2000-0.2000  plane waves:    5117
 k-point  20 :   0.3333 0.2000-0.2000  plane waves:    5117
 k-point  21 :   0.0000 0.4000 0.2000  plane waves:    5118
 k-point  22 :   0.0000-0.2000 0.4000  plane waves:    5118
 k-point  23 :   0.0000-0.4000 0.2000  plane waves:    5118
 k-point  24 :   0.0000 0.2000 0.4000  plane waves:    5118
 k-point  25 :   0.3333 0.4000 0.2000  plane waves:    5105
 k-point  26 :   0.3333-0.2000 0.4000  plane waves:    5105
 k-point  27 :   0.3333-0.4000-0.2000  plane waves:    5105
 k-point  28 :   0.3333 0.2000-0.4000  plane waves:    5105
 k-point  29 :  -0.3333-0.4000 0.2000  plane waves:    5105
 k-point  30 :  -0.3333 0.2000 0.4000  plane waves:    5105
 k-point  31 :  -0.3333 0.4000-0.2000  plane waves:    5105
 k-point  32 :  -0.3333-0.2000-0.4000  plane waves:    5105
 k-point  33 :   0.0000 0.4000 0.4000  plane waves:    5098
 k-point  34 :   0.0000-0.4000 0.4000  plane waves:    5098
 k-point  35 :   0.3333 0.4000 0.4000  plane waves:    5088
 k-point  36 :   0.3333-0.4000 0.4000  plane waves:    5088
 k-point  37 :   0.3333-0.4000-0.4000  plane waves:    5088
 k-point  38 :   0.3333 0.4000-0.4000  plane waves:    5088

 maximum and minimum number of plane-waves per node :       464      388

 maximum number of plane-waves:      5140
 maximum index in each direction: 
   IXMAX=   17   IYMAX=    8   IZMAX=    8
   IXMIN=  -17   IYMIN=   -8   IZMIN=   -8


 parallel 3D FFT for wavefunctions:
    minimum data exchange during FFTs selected (reduces bandwidth)
 parallel 3D FFT for charge:
    minimum data exchange during FFTs selected (reduces bandwidth)


 total amount of memory used by VASP MPI-rank0    61379. kBytes
=======================================================================

   base      :      30000. kBytes
   nonl-proj :       9945. kBytes
   fftplans  :        778. kBytes
   grid      :       1458. kBytes
   one-center:         46. kBytes
   wavefun   :      19152. kBytes
 
     INWAV:  cpu time      0.0000: real time      0.0002
 Broyden mixing: mesh for mixing (old mesh)
   NGX = 33   NGY = 17   NGZ = 17
  (NGX  =140   NGY  = 72   NGZ  = 72)
  gives a total of   9537 points

 initial charge density was supplied:
 charge density of overlapping atoms calculated
 number of electron     421.0000000 magnetization 
 keeping initial charge density in first step


--------------------------------------------------------------------------------------------------------


 Maximum index for augmentation-charges          517 (set IRDMAX)


--------------------------------------------------------------------------------------------------------


 First call to EWALD:  gamma=   0.214
 Maximum number of real-space cells 2x 3x 3
 Maximum number of reciprocal cells 4x 2x 2

    FEWALD:  cpu time      0.0030: real time      0.0030


--------------------------------------- Iteration      1(   1)  ---------------------------------------


    POTLOK:  cpu time      0.3576: real time      0.5353
    SETDIJ:  cpu time      0.1375: real time      0.1961
     EDDAV:  cpu time     24.2287: real time     25.6444
       DOS:  cpu time      0.4619: real time      0.4636
    --------------------------------------------
      LOOP:  cpu time     25.1857: real time     26.8393

 eigenvalue-minimisations  : 19560
 total energy-change (2. order) : 0.4049484E+04  (-0.1640495E+05)
 number of electron     421.0000000 magnetization 
 augmentation part      421.0000000 magnetization 

 Free energy of the ion-electron system (eV)
  ---------------------------------------------------
  alpha Z        PSCENC =      3602.23222236
  Ewald energy   TEWEN  =    -44200.76810156
  -Hartree energ DENC   =     -8384.36882891
  -exchange      EXHF   =         0.00000000
  -V(xc)+E(xc)   XCENC  =      1699.41731760
  PAW double counting   =     41183.59126599   -40562.48264458
  entropy T*S    EENTRO =        -0.00185164
  eigenvalues    EBANDS =     -1252.96421179
  atomic energy  EATOM  =     51964.82845987
  Solvation  Ediel_sol  =         0.00000000
  ---------------------------------------------------
  free energy    TOTEN  =      4049.48362733 eV

  energy without entropy =     4049.48547897  energy(sigma->0) =     4049.48455315


--------------------------------------------------------------------------------------------------------




--------------------------------------- Iteration      1(   2)  ---------------------------------------


     EDDAV:  cpu time     13.5043: real time     14.6720
       DOS:  cpu time      0.0068: real time      0.0068
    --------------------------------------------
      LOOP:  cpu time     13.5111: real time     14.6788

 eigenvalue-minimisations  : 19260
 total energy-change (2. order) :-0.4037747E+04  (-0.3923143E+04)
 number of electron     421.0000000 magnetization 
 augmentation part      421.0000000 magnetization 

 Free energy of the ion-electron system (eV)
  ---------------------------------------------------
  alpha Z        PSCENC =      3602.23222236
  Ewald energy   TEWEN  =    -44200.76810156
  -Hartree energ DENC   =     -8384.36882891
  -exchange      EXHF   =         0.00000000
  -V(xc)+E(xc)   XCENC  =      1699.41731760
  PAW double counting   =     41183.59126599   -40562.48264458
  entropy T*S    EENTRO =        -0.00398476
  eigenvalues    EBANDS =     -5290.70911952
  atomic energy  EATOM  =     51964.82845987
  Solvation  Ediel_sol  =         0.00000000
  ---------------------------------------------------
  free energy    TOTEN  =        11.73658649 eV

  energy without entropy =       11.74057125  energy(sigma->0) =       11.73857887


--------------------------------------------------------------------------------------------------------




--------------------------------------- Iteration      1(   3)  ---------------------------------------


     EDDAV:  cpu time      9.5974: real time      9.6324
       DOS:  cpu time      0.2592: real time      0.2602
    --------------------------------------------
      LOOP:  cpu time      9.8566: real time      9.8926

 eigenvalue-minimisations  : 28784
 total energy-change (2. order) :-0.3702997E+03  (-0.3487053E+03)
 number of electron     421.0000000 magnetization 
 augmentation part      421.0000000 magnetization 

 Free energy of the ion-electron system (eV)
  ---------------------------------------------------
  alpha Z        PSCENC =      3602.23222236
  Ewald energy   TEWEN  =    -44200.76810156
  -Hartree energ DENC   =     -8384.36882891
  -exchange      EXHF   =         0.00000000
  -V(xc)+E(xc)   XCENC  =      1699.41731760
  PAW double counting   =     41183.59126599   -40562.48264458
  entropy T*S    EENTRO =        -0.00542791
  eigenvalues    EBANDS =     -5661.00732670
  atomic energy  EATOM  =     51964.82845987
  Solvation  Ediel_sol  =         0.00000000
  ---------------------------------------------------
  free energy    TOTEN  =      -358.56306385 eV

  energy without entropy =     -358.55763593  energy(sigma->0) =     -358.56034989


--------------------------------------------------------------------------------------------------------




--------------------------------------- Iteration      1(   4)  ---------------------------------------


     EDDAV:  cpu time     11.4733: real time     11.6325
       DOS:  cpu time      0.0064: real time      0.0064
    --------------------------------------------
      LOOP:  cpu time     11.4797: real time     11.6389

 eigenvalue-minimisations  : 28808
 total energy-change (2. order) :-0.2742531E+02  (-0.2654388E+02)
 number of electron     421.0000000 magnetization 
 augmentation part      421.0000000 magnetization 

 Free energy of the ion-electron system (eV)
  ---------------------------------------------------
  alpha Z        PSCENC =      3602.23222236
  Ewald energy   TEWEN  =    -44200.76810156
  -Hartree energ DENC   =     -8384.36882891
  -exchange      EXHF   =         0.00000000
  -V(xc)+E(xc)   XCENC  =      1699.41731760
  PAW double counting   =     41183.59126599   -40562.48264458
  entropy T*S    EENTRO =        -0.00758354
  eigenvalues    EBANDS =     -5688.43048152
  atomic energy  EATOM  =     51964.82845987
  Solvation  Ediel_sol  =         0.00000000
  ---------------------------------------------------
  free energy    TOTEN  =      -385.98837430 eV

  energy without entropy =     -385.98079076  energy(sigma->0) =     -385.98458253


--------------------------------------------------------------------------------------------------------




--------------------------------------- Iteration      1(   5)  ---------------------------------------


     EDDAV:  cpu time     12.7017: real time     12.8349
       DOS:  cpu time      0.2607: real time      0.2617
    CHARGE:  cpu time      0.2969: real time      0.2979
    MIXING:  cpu time      0.1605: real time      0.1612
    --------------------------------------------
      LOOP:  cpu time     13.4198: real time     13.5557

 eigenvalue-minimisations  : 31096
 total energy-change (2. order) :-0.1643541E+01  (-0.1627905E+01)
 number of electron     420.9999744 magnetization 
 augmentation part       85.2573487 magnetization 

 Broyden mixing:
  rms(total) = 0.74130E+01    rms(broyden)= 0.74113E+01
  rms(prec ) = 0.76239E+01
  weight for this iteration     100.00

 Free energy of the ion-electron system (eV)
  ---------------------------------------------------
  alpha Z        PSCENC =      3602.23222236
  Ewald energy   TEWEN  =    -44200.76810156
  -Hartree energ DENC   =     -8384.36882891
  -exchange      EXHF   =         0.00000000
  -V(xc)+E(xc)   XCENC  =      1699.41731760
  PAW double counting   =     41183.59126599   -40562.48264458
  entropy T*S    EENTRO =        -0.00792644
  eigenvalues    EBANDS =     -5690.07367991
  atomic energy  EATOM  =     51964.82845987
  Solvation  Ediel_sol  =         0.00000000
  ---------------------------------------------------
  free energy    TOTEN  =      -387.63191559 eV

  energy without entropy =     -387.62398915  energy(sigma->0) =     -387.62795237


--------------------------------------------------------------------------------------------------------




--------------------------------------- Iteration      1(   6)  ---------------------------------------


    POTLOK:  cpu time      0.2537: real time      0.2551
    SETDIJ:  cpu time      0.0040: real time      0.0040
     EDDAV:  cpu time      8.0355: real time      8.0644
       DOS:  cpu time      0.0066: real time      0.0066
    CHARGE:  cpu time      0.1758: real time      0.1764
    MIXING:  cpu time      0.0004: real time      0.0004
    --------------------------------------------
      LOOP:  cpu time      8.4759: real time      8.5068

 eigenvalue-minimisations  : 23064
 total energy-change (2. order) : 0.1451915E+02  (-0.4480051E+01)
 number of electron     420.9999733 magnetization 
 augmentation part       88.6671298 magnetization 

 Broyden mixing:
  rms(total) = 0.27186E+01    rms(broyden)= 0.27181E+01
  rms(prec ) = 0.31676E+01
  weight for this iteration     100.00

 eigenvalues of (default mixing * dielectric matrix)
  average eigenvalue GAMMA=   1.4309
  1.4309

 Free energy of the ion-electron system (eV)
  ---------------------------------------------------
  alpha Z        PSCENC =      3602.23222236
  Ewald energy   TEWEN  =    -44200.76810156
  -Hartree energ DENC   =     -7925.38865847
  -exchange      EXHF   =         0.00000000
  -V(xc)+E(xc)   XCENC  =      1676.80617269
  PAW double counting   =     48300.63096553   -47735.34668498
  entropy T*S    EENTRO =        -0.00505907
  eigenvalues    EBANDS =     -6056.10208409
  atomic energy  EATOM  =     51964.82845987
  Solvation  Ediel_sol  =         0.00000000
  ---------------------------------------------------
  free energy    TOTEN  =      -373.11276772 eV

  energy without entropy =     -373.10770865  energy(sigma->0) =     -373.11023819


--------------------------------------------------------------------------------------------------------




--------------------------------------- Iteration      1(   7)  ---------------------------------------


    POTLOK:  cpu time      0.0074: real time      0.0076
    SETDIJ:  cpu time      0.0021: real time      0.0021
     EDDAV:  cpu time      8.1512: real time      8.1791
       DOS:  cpu time      0.0065: real time      0.0065
    CHARGE:  cpu time      0.1749: real time      0.1755
    MIXING:  cpu time      0.0004: real time      0.0004
    --------------------------------------------
      LOOP:  cpu time      8.3425: real time      8.3711

 eigenvalue-minimisations  : 28072
 total energy-change (2. order) :-0.1065852E+02  (-0.5732264E+01)
 number of electron     420.9999735 magnetization 
 augmentation part       88.4551740 magnetization 

 Broyden mixing:
  rms(total) = 0.19826E+01    rms(broyden)= 0.19811E+01
  rms(prec ) = 0.51513E+01
  weight for this iteration     100.00

 eigenvalues of (default mixing * dielectric matrix)
  average eigenvalue GAMMA=   1.0237
  1.5754  0.4719

 Free energy of the ion-electron system (eV)
  ---------------------------------------------------
  alpha Z        PSCENC =      3602.23222236
  Ewald energy   TEWEN  =    -44200.76810156
  -Hartree energ DENC   =     -7789.55878662
  -exchange      EXHF   =         0.00000000
  -V(xc)+E(xc)   XCENC  =      1668.69440349
  PAW double counting   =     52712.59701059   -52167.04324514
  entropy T*S    EENTRO =        -0.00297488
  eigenvalues    EBANDS =     -6174.75027366
  atomic energy  EATOM  =     51964.82845987
  Solvation  Ediel_sol  =         0.00000000
  ---------------------------------------------------
  free energy    TOTEN  =      -383.77128554 eV

  energy without entropy =     -383.76831067  energy(sigma->0) =     -383.76979810


--------------------------------------------------------------------------------------------------------




--------------------------------------- Iteration      1(   8)  ---------------------------------------


    POTLOK:  cpu time      0.0074: real time      0.0076
    SETDIJ:  cpu time      0.0021: real time      0.0022
     EDDAV:  cpu time      8.0416: real time      8.0691
       DOS:  cpu time      0.0065: real time      0.0065
    CHARGE:  cpu time      0.1755: real time      0.1761
    MIXING:  cpu time      0.0003: real time      0.0003
    --------------------------------------------
      LOOP:  cpu time      8.2335: real time      8.2617

 eigenvalue-minimisations  : 26912
 total energy-change (2. order) : 0.1520055E+02  (-0.3321284E+01)
 number of electron     420.9999736 magnetization 
 augmentation part       89.1539222 magnetization 

 Broyden mixing:
  rms(total) = 0.73377E+00    rms(broyden)= 0.73101E+00
  rms(prec ) = 0.11978E+01
  weight for this iteration     100.00

 eigenvalues of (default mixing * dielectric matrix)
  average eigenvalue GAMMA=   0.9085
  1.6590  0.7561  0.3103

 Free energy of the ion-electron system (eV)
  ---------------------------------------------------
  alpha Z        PSCENC =      3602.23222236
  Ewald energy   TEWEN  =    -44200.76810156
  -Hartree energ DENC   =     -7718.19161724
  -exchange      EXHF   =         0.00000000
  -V(xc)+E(xc)   XCENC  =      1665.78283537
  PAW double counting   =     53980.25468175   -53442.92946957
  entropy T*S    EENTRO =        -0.00319752
  eigenvalues    EBANDS =     -6219.77654895
  atomic energy  EATOM  =     51964.82845987
  Solvation  Ediel_sol  =         0.00000000
  ---------------------------------------------------
  free energy    TOTEN  =      -368.57073550 eV

  energy without entropy =     -368.56753797  energy(sigma->0) =     -368.56913674


--------------------------------------------------------------------------------------------------------




--------------------------------------- Iteration      1(   9)  ---------------------------------------


    POTLOK:  cpu time      0.0074: real time      0.0076
    SETDIJ:  cpu time      0.0021: real time      0.0021
     EDDAV:  cpu time      8.2675: real time      8.2971
       DOS:  cpu time      0.0065: real time      0.0065
    CHARGE:  cpu time      0.1761: real time      0.1767
    MIXING:  cpu time      0.0003: real time      0.0003
    --------------------------------------------
      LOOP:  cpu time      8.4600: real time      8.4904

 eigenvalue-minimisations  : 25184
 total energy-change (2. order) : 0.1111284E+00  (-0.1156014E+01)
 number of electron     420.9999735 magnetization 
 augmentation part       89.5004974 magnetization 

 Broyden mixing:
  rms(total) = 0.56746E+00    rms(broyden)= 0.56656E+00
  rms(prec ) = 0.70912E+00
  weight for this iteration     100.00

 eigenvalues of (default mixing * dielectric matrix)
  average eigenvalue GAMMA=   0.9086
  1.6421  1.3058  0.4267  0.2598

 Free energy of the ion-electron system (eV)
  ---------------------------------------------------
  alpha Z        PSCENC =      3602.23222236
  Ewald energy   TEWEN  =    -44200.76810156
  -Hartree energ DENC   =     -7688.60460347
  -exchange      EXHF   =         0.00000000
  -V(xc)+E(xc)   XCENC  =      1664.50043378
  PAW double counting   =     54608.60372515   -54074.66065665
  entropy T*S    EENTRO =        -0.00415951
  eigenvalues    EBANDS =     -6244.58692704
  atomic energy  EATOM  =     51964.82845987
  Solvation  Ediel_sol  =         0.00000000
  ---------------------------------------------------
  free energy    TOTEN  =      -368.45960706 eV

  energy without entropy =     -368.45544755  energy(sigma->0) =     -368.45752730


--------------------------------------------------------------------------------------------------------




--------------------------------------- Iteration      1(  10)  ---------------------------------------


    POTLOK:  cpu time      0.0075: real time      0.0076
    SETDIJ:  cpu time      0.0021: real time      0.0021
     EDDAV:  cpu time      8.0592: real time      8.0873
       DOS:  cpu time      0.0067: real time      0.0067
    CHARGE:  cpu time      0.1734: real time      0.1740
    MIXING:  cpu time      0.0004: real time      0.0004
    --------------------------------------------
      LOOP:  cpu time      8.2493: real time      8.2782

 eigenvalue-minimisations  : 25184
 total energy-change (2. order) : 0.1026901E+00  (-0.1998216E+00)
 number of electron     420.9999737 magnetization 
 augmentation part       89.3480349 magnetization 

 Broyden mixing:
  rms(total) = 0.36504E+00    rms(broyden)= 0.36481E+00
  rms(prec ) = 0.46912E+00
  weight for this iteration     100.00

 eigenvalues of (default mixing * dielectric matrix)
  average eigenvalue GAMMA=   1.0384
  2.0098  1.8457  0.6598  0.3934  0.2835

 Free energy of the ion-electron system (eV)
  ---------------------------------------------------
  alpha Z        PSCENC =      3602.23222236
  Ewald energy   TEWEN  =    -44200.76810156
  -Hartree energ DENC   =     -7693.61335479
  -exchange      EXHF   =         0.00000000
  -V(xc)+E(xc)   XCENC  =      1664.70030994
  PAW double counting   =     54899.62983426   -54363.32137954
  entropy T*S    EENTRO =        -0.00529820
  eigenvalues    EBANDS =     -6242.03960930
  atomic energy  EATOM  =     51964.82845987
  Solvation  Ediel_sol  =         0.00000000
  ---------------------------------------------------
  free energy    TOTEN  =      -368.35691696 eV

  energy without entropy =     -368.35161876  energy(sigma->0) =     -368.35426786


--------------------------------------------------------------------------------------------------------




--------------------------------------- Iteration      1(  11)  ---------------------------------------


    POTLOK:  cpu time      0.0075: real time      0.0076
    SETDIJ:  cpu time      0.0021: real time      0.0021
     EDDAV:  cpu time     11.0606: real time     11.1015
       DOS:  cpu time      0.0065: real time      0.0065
    CHARGE:  cpu time      0.1797: real time      0.1804
    MIXING:  cpu time      0.0004: real time      0.0004
    --------------------------------------------
      LOOP:  cpu time     11.2568: real time     11.2984

 eigenvalue-minimisations  : 25088
 total energy-change (2. order) :-0.1277135E-01  (-0.7185598E-01)
 number of electron     420.9999738 magnetization 
 augmentation part       89.2278552 magnetization 

 Broyden mixing:
  rms(total) = 0.18413E+00    rms(broyden)= 0.18388E+00
  rms(prec ) = 0.40505E+00
  weight for this iteration     100.00

 eigenvalues of (default mixing * dielectric matrix)
  average eigenvalue GAMMA=   1.0249
  2.4946  1.7658  0.8104  0.2803  0.4189  0.3791

 Free energy of the ion-electron system (eV)
  ---------------------------------------------------
  alpha Z        PSCENC =      3602.23222236
  Ewald energy   TEWEN  =    -44200.76810156
  -Hartree energ DENC   =     -7700.61981144
  -exchange      EXHF   =         0.00000000
  -V(xc)+E(xc)   XCENC  =      1665.00757463
  PAW double counting   =     55105.35924710   -54565.55309974
  entropy T*S    EENTRO =        -0.00518742
  eigenvalues    EBANDS =     -6238.85099212
  atomic energy  EATOM  =     51964.82845987
  Solvation  Ediel_sol  =         0.00000000
  ---------------------------------------------------
  free energy    TOTEN  =      -368.36968832 eV

  energy without entropy =     -368.36450090  energy(sigma->0) =     -368.36709461


--------------------------------------------------------------------------------------------------------




--------------------------------------- Iteration      1(  12)  ---------------------------------------


    POTLOK:  cpu time      0.0075: real time      0.0077
    SETDIJ:  cpu time      0.0021: real time      0.0021
     EDDAV:  cpu time      7.8025: real time      7.8294
       DOS:  cpu time      0.0068: real time      0.0068
    CHARGE:  cpu time      0.1794: real time      0.1800
    MIXING:  cpu time      0.0004: real time      0.0004
    --------------------------------------------
      LOOP:  cpu time      7.9987: real time      8.0264

 eigenvalue-minimisations  : 25920
 total energy-change (2. order) : 0.4261146E-01  (-0.3656927E-01)
 number of electron     420.9999738 magnetization 
 augmentation part       89.1829273 magnetization 

 Broyden mixing:
  rms(total) = 0.10050E+00    rms(broyden)= 0.10026E+00
[...]
    127       4.6146      2.00000
    128       4.9210      2.00000
    129       5.0860      2.00000
    130       5.2857      2.00000
    131       5.3312      2.00000
    132       5.6010      2.00000
    133       5.6289      2.00000
    134       5.7359      2.00000
    135       6.0371      2.00000
    136       6.1150      2.00000
    137       6.1890      2.00000
    138       6.2515      2.00000
    139       6.3247      2.00000
    140       6.3504      2.00000
    141       6.3745      2.00000
    142       6.4641      2.00000
    143       6.5028      2.00000
    144       6.5520      2.00000
    145       6.5628      2.00000
    146       6.6063      2.00000
    147       6.6159      2.00000
    148       6.6407      2.00000
    149       6.6775      2.00000
    150       6.7112      2.00000
    151       6.7407      2.00000
    152       6.7634      2.00000
    153       6.7971      2.00000
    154       6.8695      2.00000
    155       6.9441      2.00000
    156       7.0207      2.00000
    157       7.0680      2.00000
    158       7.1092      2.00000
    159       7.1295      2.00000
    160       7.1672      2.00000
    161       7.2401      2.00000
    162       7.3613      2.00000
    163       7.4013      2.00000
    164       7.4409      2.00000
    165       7.4972      2.00000
    166       7.5153      2.00000
    167       7.5596      2.00000
    168       7.5759      2.00000
    169       7.6077      2.00000
    170       7.6251      2.00000
    171       7.6335      2.00000
    172       7.6822      2.00000
    173       7.7141      2.00000
    174       7.7276      2.00000
    175       7.7521      2.00000
    176       7.7868      2.00000
    177       7.8075      2.00000
    178       7.8792      2.00000
    179       7.8931      2.00000
    180       7.9097      2.00000
    181       7.9255      2.00000
    182       7.9538      2.00000
    183       7.9621      2.00000
    184       7.9883      2.00000
    185       8.0084      2.00000
    186       8.0250      2.00000
    187       8.0431      2.00000
    188       8.0845      2.00000
    189       8.1168      2.00000
    190       8.1273      2.00000
    191       8.1726      2.00000
    192       8.1897      2.00000
    193       8.2059      2.00000
    194       8.2420      2.00000
    195       8.2675      2.00000
    196       8.2826      2.00000
    197       8.2913      2.00000
    198       8.3207      2.00000
    199       8.3593      2.00000
    200       8.3637      2.00000
    201       8.3979      2.00000
    202       8.4135      2.00000
    203       8.4727      2.00000
    204       8.5085      2.00000
    205       8.5249      2.00000
    206       8.5588      2.00000
    207       8.5844      2.00000
    208       8.6121      2.00000
    209       8.6279      2.00000
    210       8.6632      2.00000
    211       8.6977      2.00000
    212       8.7326      2.00000
    213       8.7850      2.00000
    214       8.8488      2.00000
    215       9.0820      2.00000
    216       9.1888      2.00000
    217       9.2851      2.00000
    218       9.9428      0.00000
    219      10.8481      0.00000
    220      11.0767      0.00000
    221      11.1152      0.00000
    222      11.1307      0.00000
    223      11.1871      0.00000
    224      11.2147      0.00000
    225      11.2784      0.00000
    226      11.3491      0.00000
    227      11.4444      0.00000
    228      11.5086      0.00000
    229      11.5493      0.00000
    230      11.5835      0.00000
    231      11.5991      0.00000
    232      11.6416      0.00000
    233      11.6976      0.00000
    234      11.7238      0.00000
    235      11.7632      0.00000
    236      11.7715      0.00000
    237      11.8090      0.00000
    238      11.8154      0.00000
    239      11.8752      0.00000
    240      11.9103      0.00000
    241      11.9313      0.00000
    242      11.9543      0.00000
    243      12.0007      0.00000
    244      12.0208      0.00000
    245      12.0600      0.00000
    246      12.0796      0.00000
    247      12.1116      0.00000
    248      12.1567      0.00000
    249      12.1850      0.00000
    250      12.2230      0.00000
    251      12.3047      0.00000
    252      12.3518      0.00000


--------------------------------------------------------------------------------------------------------


 soft charge-density along one line, spin component           1
         0         1         2         3         4         5         6         7         8         9
 total charge-density along one line
 
 pseudopotential strength for first ion, spin component:           1
  5.781 -20.348  -0.003   0.001   0.001   0.006  -0.003  -0.002
-20.348   9.259  -0.004   0.002   0.001   0.000  -0.000   0.000
 -0.003  -0.004  -9.786  -0.002  -0.002   6.035   0.002   0.002
  0.001   0.002  -0.002  -9.791  -0.002   0.002   6.040   0.002
  0.001   0.001  -0.002  -0.002  -9.792   0.002   0.002   6.041
  0.006   0.000   6.035   0.002   0.002   7.920  -0.001  -0.001
 -0.003  -0.000   0.002   6.040   0.002  -0.001   7.917  -0.002
 -0.002   0.000   0.002   0.002   6.041  -0.001  -0.002   7.916
 -0.001  -0.001   0.001  -0.000  -0.002  -0.001  -0.000   0.003
 -0.001  -0.000   0.001  -0.002  -0.000  -0.002   0.004  -0.000
 -0.001  -0.000   0.001   0.001  -0.000  -0.001  -0.001   0.000
 -0.002  -0.001  -0.000   0.001   0.001  -0.000  -0.001  -0.002
 -0.002  -0.001   0.002  -0.000   0.001  -0.002   0.000  -0.001
 -0.002  -0.001   0.001  -0.000  -0.003  -0.001  -0.000   0.004
 -0.001  -0.001   0.002  -0.003  -0.000  -0.002   0.004  -0.000
 -0.001  -0.000   0.001   0.002  -0.000  -0.002  -0.002   0.000
 -0.002  -0.001  -0.000   0.001   0.002  -0.000  -0.001  -0.002
 -0.003  -0.001   0.003  -0.000   0.001  -0.003   0.000  -0.001
 total augmentation occupancy for first ion, spin component:           1
  1.995  -0.048   0.000   0.000   0.000   0.000   0.000   0.000  -0.005  -0.004  -0.003  -0.006  -0.002   0.004   0.004   0.002
 -0.048   1.312   0.002  -0.000   0.002   0.004  -0.001  -0.006  -0.016  -0.018  -0.032  -0.011  -0.025   0.007   0.008   0.012
  0.000   0.002   1.996   0.000   0.000  -0.032  -0.001  -0.000   0.000  -0.001   0.002  -0.006   0.003  -0.000   0.000  -0.001
  0.000  -0.000   0.000   1.996   0.000  -0.001  -0.032  -0.000  -0.006   0.010   0.003   0.001  -0.000   0.003  -0.006  -0.002
  0.000   0.002   0.000   0.000   1.996  -0.000  -0.000  -0.031   0.011  -0.006  -0.002  -0.001   0.004  -0.007   0.003   0.001
  0.000   0.004  -0.032  -0.001  -0.000   0.070   0.001   0.001  -0.002  -0.004  -0.006   0.015  -0.012   0.001   0.002   0.003
  0.000  -0.001  -0.001  -0.032  -0.000   0.001   0.068   0.000   0.015  -0.006  -0.005  -0.005   0.000  -0.008   0.005   0.002
  0.000  -0.006  -0.000  -0.000  -0.031   0.001   0.000   0.068  -0.008   0.015   0.005  -0.004  -0.008   0.006  -0.008  -0.002
 -0.005  -0.016   0.000  -0.006   0.011  -0.002   0.015  -0.008   3.249  -0.017   0.037  -0.030  -0.004  -1.358  -0.000  -0.017
 -0.004  -0.018  -0.001   0.010  -0.006  -0.004  -0.006   0.015  -0.017   3.276  -0.016  -0.028   0.028  -0.001  -1.366   0.007
 -0.003  -0.032   0.002   0.003  -0.002  -0.006  -0.005   0.005   0.037  -0.016   2.559  -0.024   0.035  -0.016   0.007  -1.158
 -0.006  -0.011  -0.006   0.001  -0.001   0.015  -0.005  -0.004  -0.030  -0.028  -0.024   3.262  -0.034   0.012   0.011   0.012
 -0.002  -0.025   0.003  -0.000   0.004  -0.012   0.000  -0.008  -0.004   0.028   0.035  -0.034   2.634   0.001  -0.012  -0.014
  0.004   0.007  -0.000   0.003  -0.007   0.001  -0.008   0.006  -1.358  -0.001  -0.016   0.012   0.001   0.579   0.003   0.007
  0.004   0.008   0.000  -0.006   0.003   0.002   0.005  -0.008  -0.000  -1.366   0.007   0.011  -0.012   0.003   0.581  -0.003
  0.002   0.012  -0.001  -0.002   0.001   0.003   0.002  -0.002  -0.017   0.007  -1.158   0.012  -0.014   0.007  -0.003   0.532
  0.005   0.002   0.003  -0.000   0.001  -0.008   0.001   0.002   0.012   0.011   0.011  -1.361   0.017  -0.005  -0.004  -0.005
  0.002   0.009  -0.002   0.000  -0.002   0.005  -0.000   0.003   0.001  -0.013  -0.014   0.018  -1.183  -0.000   0.006   0.005


------------------------ aborting loop because EDIFF is reached ----------------------------------------


    CHARGE:  cpu time      0.1829: real time      0.1837
    FORLOC:  cpu time      0.0014: real time      0.0014
    FORNL :  cpu time      3.7792: real time      3.8837
    STRESS:  cpu time      4.3448: real time      4.3649
    FORCOR:  cpu time      0.0358: real time      0.0360
    FORHAR:  cpu time      0.1069: real time      0.1076
    MIXING:  cpu time      0.0619: real time      0.0622
    OFIELD:  cpu time      0.0000: real time      0.0000

  FORCE on cell =-STRESS in cart. coord.  units (eV):
  Direction    XX          YY          ZZ          XY          YZ          ZX
  --------------------------------------------------------------------------------------
  Alpha Z  3602.23222  3602.23222  3602.23222
  Ewald  -14777.77375-14745.18820-14678.03803    38.49799   -15.49951     2.47577
  Hartree  2522.95891  2559.65688  2620.44105    35.36515   -13.26496     2.13713
  E(xc)   -1941.41927 -1941.40420 -1941.45663    -0.05037     0.00431    -0.01331
  Local    3393.48136  3322.71661  3196.21671   -71.96403    27.57551    -4.46803
  n-local  -622.58515  -623.36913  -622.48862    -0.19681     1.04605     1.08087
  augment  1162.72215  1163.11509  1162.79768    -0.36327     0.24894    -0.13309
  Kinetic  6605.88590  6607.85642  6604.93305    -0.78854    -0.36981    -1.19689
  Fock        0.00000     0.00000     0.00000     0.00000     0.00000     0.00000
  -------------------------------------------------------------------------------------
  Total     -54.49762   -54.38432   -55.36258     0.50011    -0.25946    -0.11756
  in kB    -153.24292  -152.92433  -155.67514     1.40627    -0.72959    -0.33058
  external pressure =     -153.95 kB  Pullay stress =        0.00 kB


 VOLUME and BASIS-vectors are now :
 -----------------------------------------------------------------------------
  energy-cutoff  :      250.00
  volume of cell :      569.78
      direct lattice vectors                 reciprocal lattice vectors
    13.160000000  0.000000000  0.000000000     0.075987842  0.000000000  0.000000000
     0.000000000  6.580000000  0.000000000     0.000000000  0.151975684  0.000000000
     0.000000000  0.000000000  6.580000000     0.000000000  0.000000000  0.151975684

  length of vectors
    13.160000000  6.580000000  6.580000000     0.075987842  0.151975684  0.151975684


 FORCES acting on ions
    electron-ion (+dipol)            ewald-force                    non-local-force                 convergence-correction
 -----------------------------------------------------------------------------------------------
   0.121E+03 -.497E+02 0.298E+02   -.121E+03 0.490E+02 -.296E+02   0.315E+00 0.100E+00 0.967E-02   -.136E-04 -.462E-03 0.273E-03
   0.936E+02 -.571E+02 0.383E+02   -.932E+02 0.566E+02 -.383E+02   -.836E-01 0.834E-01 0.188E+00   -.185E-03 -.937E-04 -.242E-04
   0.874E+02 0.497E+02 0.298E+02   -.873E+02 -.490E+02 -.296E+02   -.454E-01 -.104E+00 0.191E-01   -.752E-04 0.471E-03 0.282E-03
   -.454E+02 -.477E+02 0.109E+02   0.445E+02 0.474E+02 -.107E+02   0.376E+00 -.631E-02 0.308E-01   0.161E-03 -.156E-03 0.113E-04
   -.800E+02 -.124E+02 0.114E+02   0.805E+02 0.122E+02 -.112E+02   -.302E+00 0.225E-02 -.122E-01   0.183E-03 -.320E-03 0.338E-03
   0.418E+02 0.169E+02 -.199E+02   -.418E+02 -.168E+02 0.199E+02   0.148E+00 0.402E-01 -.425E-01   -.192E-03 0.973E-04 0.670E-04
   -.754E+02 -.124E+02 -.114E+02   0.758E+02 0.122E+02 0.112E+02   -.262E+00 0.103E-01 0.166E-01   0.167E-03 -.331E-03 -.329E-03
   -.315E+02 0.124E+02 -.114E+02   0.315E+02 -.122E+02 0.112E+02   0.615E-01 -.574E-02 0.130E-01   0.300E-03 0.333E-03 -.333E-03
   -.707E+02 0.402E+02 -.204E+02   0.703E+02 -.398E+02 0.204E+02   0.443E-01 -.309E-01 0.144E-01   -.153E-05 0.190E-03 -.244E-03
   0.232E+01 0.234E+02 0.221E+02   -.215E+01 -.231E+02 -.220E+02   0.611E-01 -.947E-02 0.122E+00   -.114E-03 0.613E-03 0.395E-03
   -.808E+02 0.282E+02 0.801E+01   0.814E+02 -.280E+02 -.825E+01   -.527E+00 0.342E-02 0.889E-01   0.236E-03 0.416E-04 0.896E-05
   -.590E+02 0.512E+02 -.116E+02   0.585E+02 -.511E+02 0.115E+02   -.798E-01 0.416E-01 -.661E-01   0.370E-04 0.154E-03 -.443E-04
   0.923E+02 -.613E+02 -.410E+02   -.923E+02 0.610E+02 0.412E+02   0.522E+00 -.128E-02 -.169E+00   -.164E-03 -.934E-04 -.179E-04
   0.450E+02 -.181E+02 0.214E+02   -.450E+02 0.181E+02 -.214E+02   0.177E+00 -.333E-01 0.542E-02   -.111E-03 -.993E-04 -.657E-04
   0.796E+02 0.613E+02 -.411E+02   -.793E+02 -.610E+02 0.412E+02   0.311E-01 -.598E-02 -.166E+00   -.142E-03 0.773E-04 -.298E-05
   0.109E+02 -.234E+02 0.222E+02   -.108E+02 0.231E+02 -.220E+02   -.694E-01 0.159E-01 0.838E-01   -.947E-04 -.609E-03 0.384E-03
   -.706E+02 -.282E+02 -.802E+01   0.708E+02 0.280E+02 0.825E+01   -.123E+00 -.114E-01 -.864E-01   0.208E-03 -.425E-04 -.232E-04
   -.389E+02 0.106E+02 0.975E+01   0.393E+02 -.103E+02 -.949E+01   -.691E-02 -.207E-01 -.905E-02   0.208E-03 0.267E-03 0.282E-03
   -.453E+02 -.342E+02 -.173E+02   0.445E+02 0.337E+02 0.173E+02   0.325E+00 0.118E-02 0.463E-01   -.121E-04 -.164E-03 -.208E-03
   0.250E+02 0.186E+02 -.178E+02   -.250E+02 -.181E+02 0.173E+02   -.138E+00 -.248E-01 -.361E-01   -.115E-03 0.486E-03 -.299E-03
   -.435E+02 -.342E+02 0.173E+02   0.430E+02 0.337E+02 -.173E+02   0.173E-01 0.492E-01 -.501E-01   -.493E-04 -.170E-03 0.212E-03
   0.293E+02 0.143E+02 0.168E+02   -.290E+02 -.142E+02 -.168E+02   -.283E+00 0.164E-01 0.151E-01   -.181E-03 0.835E-04 -.629E-04
   0.614E+02 0.422E+02 -.253E+02   -.612E+02 -.414E+02 0.250E+02   0.125E+00 -.745E-01 -.409E-01   -.142E-03 0.375E-03 -.219E-03
   0.820E+02 0.613E+02 0.411E+02   -.818E+02 -.610E+02 -.412E+02   0.219E+00 0.109E+00 0.176E-01   -.165E-03 0.109E-03 -.202E-04
   -.565E+02 0.513E+02 0.117E+02   0.560E+02 -.511E+02 -.115E+02   -.324E+00 0.475E-01 0.517E-01   0.421E-04 0.169E-03 0.428E-04
   0.475E+02 -.181E+02 -.215E+02   -.475E+02 0.181E+02 0.214E+02   0.485E-01 0.695E-02 0.415E-01   -.726E-04 -.999E-04 0.549E-04
   -.465E+02 0.432E+02 0.220E+02   0.461E+02 -.428E+02 -.220E+02   -.209E+00 0.614E-01 -.365E-01   -.473E-04 0.212E-03 0.261E-03
   0.125E+03 -.532E+02 -.320E+02   -.126E+03 0.527E+02 0.319E+02   0.397E+00 -.124E+00 -.505E-01   -.124E-04 -.506E-03 -.288E-03
   -.565E+02 -.512E+02 -.117E+02   0.560E+02 0.511E+02 0.115E+02   -.253E+00 -.458E-01 -.603E-01   0.172E-03 -.170E-03 -.639E-04
   0.130E+02 -.234E+02 -.222E+02   -.127E+02 0.231E+02 0.220E+02   -.353E+00 -.103E+00 -.121E+00   -.125E-03 -.626E-03 -.385E-03
   -.892E+02 0.282E+02 -.807E+01   0.894E+02 -.280E+02 0.825E+01   0.131E+00 0.345E-01 0.954E-02   0.291E-03 0.528E-04 -.549E-05
   -.682E+02 -.282E+02 0.804E+01   0.683E+02 0.280E+02 -.825E+01   0.732E-01 -.553E-01 -.989E-02   0.192E-03 -.282E-04 0.861E-05
 -----------------------------------------------------------------------------------------------
   -.132E-01 0.342E-01 0.184E+00   0.313E-12 0.995E-13 0.124E-13   0.131E-01 -.339E-01 -.184E+00   0.182E-03 -.240E-03 -.167E-04
 
 
 POSITION                                       TOTAL-FORCE (eV/Angst)
 -----------------------------------------------------------------------------------
      8.22500      1.64500      1.64500         0.298482     -0.622697      0.255666
      9.87000      3.29000      0.00000         0.260923     -0.397908      0.196048
      8.22500      4.93500      1.64500         0.127800      0.618343      0.252143
      0.00000      3.29000      0.00000        -0.481936     -0.255150      0.219837
      1.64500      1.64500      1.64500         0.152128     -0.204549      0.199397
      6.58000      3.29000      3.29000         0.134615      0.063878     -0.053343
      1.64500      1.64500      4.93500         0.152507     -0.199839     -0.175071
      1.64500      4.93500      4.93500         0.131103      0.188530     -0.172789
      4.93500      4.93500      4.93500        -0.333473      0.411223     -0.013527
     11.51500      4.93500      1.64500         0.230587      0.340068      0.305911
      3.29000      3.29000      3.29000         0.067802      0.170707     -0.153842
      0.00000      0.00000      3.29000        -0.612477      0.178297     -0.162441
      9.87000      3.29000      3.29000         0.447565     -0.323703      0.033320
      6.58000      0.00000      0.00000         0.136291     -0.019543      0.007600
      9.87000      0.00000      3.29000         0.358389      0.355005     -0.022754
     11.51500      1.64500      1.64500         0.040337     -0.349145      0.305265
      3.29000      0.00000      0.00000         0.129931     -0.181661      0.145322
      1.64500      4.93500      1.64500         0.382573      0.237563      0.249752
      4.93500      1.64500      4.93500        -0.462432     -0.514871     -0.003301
     11.51500      4.93500      4.93500        -0.102341      0.470471     -0.547364
      4.93500      1.64500      1.64500        -0.528766     -0.513228      0.006290
      6.58000      3.29000      0.00000        -0.004159      0.017384      0.001622
      8.22500      4.93500      4.93500         0.336348      0.675701     -0.271311
      9.87000      0.00000      0.00000         0.431539      0.444270     -0.030963
      0.00000      0.00000      0.00000        -0.794255      0.217335      0.181698
      6.58000      0.00000      3.29000         0.090281      0.005665     -0.000498
      4.93500      4.93500      1.64500        -0.615991      0.388043      0.020424
      8.22500      1.64500      4.93500         0.198827     -0.571503     -0.176750
      0.00000      3.29000      3.29000        -0.719385     -0.199819     -0.189449
     11.51500      1.64500      4.93500        -0.020015     -0.416685     -0.379493
      3.29000      3.29000      0.00000         0.334556      0.223952      0.189290
      3.29000      0.00000      3.29000         0.232647     -0.236134     -0.216688
 -----------------------------------------------------------------------------------
    total drift:                               -0.000010     -0.000012     -0.000015


--------------------------------------------------------------------------------------------------------



  FREE ENERGIE OF THE ION-ELECTRON SYSTEM (eV)
  ---------------------------------------------------
  free  energy   TOTEN  =      -368.29549403 eV

  energy  without entropy=     -368.29017915  energy(sigma->0) =     -368.29283659
 


--------------------------------------------------------------------------------------------------------


    POTLOK:  cpu time      0.0141: real time      0.0142


--------------------------------------------------------------------------------------------------------


     LOOP+:  cpu time    269.2010: real time    274.4962
    4ORBIT:  cpu time      0.0000: real time      0.0000

 total amount of memory used by VASP MPI-rank0    61379. kBytes
=======================================================================

   base      :      30000. kBytes
   nonl-proj :       9945. kBytes
   fftplans  :        778. kBytes
   grid      :       1458. kBytes
   one-center:         46. kBytes
   wavefun   :      19152. kBytes
 
  
  
 General timing and accounting informations for this job:
 ========================================================
  
                  Total CPU time used (sec):      325.324
                            User time (sec):      320.596
                          System time (sec):        4.728
                         Elapsed time (sec):      338.987
  
                   Maximum memory used (kb):      109480.
                   Average memory used (kb):          N/A
  
                          Minor page faults:        14705
                          Major page faults:            0
                 Voluntary context switches:          378
