 vasp.6.3.1 04May22 (build Jul 26 2022 04:02:40) complex                        
  
 executed on             LinuxIFC date 2023.11.30  23:17:10
 running on   48 total cores
 distrk:  each k-point on   48 cores,    1 groups
 distr:  one band on NCORE=  12 cores,    4 groups


--------------------------------------------------------------------------------------------------------


 INCAR:
   ISTART = 0
   NWRITE = 2
   PREC = Accurate
   ENCUT = 250
   GGA = PE
   NSW = 0
   ISIF = 2
   ISYM = 2
   NBLOCK = 1
   KBLOCK = 1
   IBRION = -1
   NELM = 80
   EDIFF = 1E-08
   EDIFFG = -0.01
   ALGO = Normal
   LDIAG = .TRUE.
   LREAL = .FALSE.
   ISMEAR = 0
   SIGMA = 0.02
   ICHARG = 2
   LPLANE = .TRUE.
   NPAR = 4
   LSCALU = .FALSE.
   NSIM = 4
   LWAVE = .FALSE.
   LCHARG = .FALSE.
   ICORELEVEL = 1

 POTCAR:    PAW_PBE Nb_sv 25May2007               
 POTCAR:    PAW_PBE Mo_sv 02Feb2006               
 POTCAR:    PAW_PBE Ta_pv 07Sep2000               
 POTCAR:    PAW_PBE W_sv 04Sep2015                
 POTCAR:    PAW_PBE Nb_sv 25May2007               
   SHA256 =  0e8fc07c9fcd1164cf2ade22d0399fd28f85e91cd773dfa6cf24839a48c95e24 Nb_sv/POTCAR          
   COPYR  = (c) Copyright 25May2007 Georg Kresse                                                    
   COPYR  = This file is part of the software VASP. Any use, copying, and all other rights are regul
   COPYR  = If you do not have a valid VASP license, you may not use, copy or distribute this file. 
   VRHFIN =Nb: 4p5s4d                                                                               
   LEXCH  = PE                                                                                      
   EATOM  =  1555.1913 eV,  114.3033 Ry                                                             
                                                                                                    
   TITEL  = PAW_PBE Nb_sv 25May2007                                                                 
   LULTRA =        F    use ultrasoft PP ?                                                          
   IUNSCR =        1    unscreen: 0-lin 1-nonlin 2-no                                               
   RPACOR =    1.800    partial core radius                                                         
   POMASS =   92.910; ZVAL   =   13.000    mass and valenz                                          
   RCORE  =    2.400    outmost cutoff radius                                                       
   RWIGS  =    2.400; RWIGS  =    1.270    wigner-seitz radius (au A)                               
   ENMAX  =  293.235; ENMIN  =  219.927 eV                                                          
   ICORE  =        3    local potential                                                             
   LCOR   =        T    correct aug charges                                                         
   LPAW   =        T    paw PP                                                                      
   EAUG   =  455.659                                                                                
   DEXC   =    0.000                                                                                
   RMAX   =    2.456    core radius for proj-oper                                                   
   RAUG   =    1.300    factor for augmentation sphere                                              
   RDEP   =    2.451    radius for radial grids                                                     
   RDEPT  =    1.956    core radius for aug-charge                                                  
                                                                                                    
   Atomic configuration                                                                             
   11 entries                                                                                       
     n  l   j            E        occ.                                                              
     1  0  0.50    -18805.2457   2.0000                                                             
     2  0  0.50     -2630.2869   2.0000                                                             
     2  1  1.50     -2348.4046   6.0000                                                             
     3  0  0.50      -438.8757   2.0000                                                             
     3  1  1.50      -346.7588   6.0000                                                             
     3  2  2.50      -196.2560  10.0000                                                             
     4  0  0.50       -58.3859   2.0000                                                             
     5  0  0.50        -3.9816   1.0000                                                             
     4  1  1.50       -34.5141   6.0000                                                             
     4  2  2.50        -3.0408   4.0000                                                             
     4  3  2.50        -1.3606   0.0000                                                             
   Description                                                                                      
     l       E           TYP  RCUT    TYP  RCUT                                                     
     0    -58.3859094     23  2.200                                                                 
     0     -3.9816262     23  2.200                                                                 
     1    -34.5140738     23  2.200                                                                 
     1     13.6058260     23  2.200                                                                 
     2     -3.0408010     23  2.200                                                                 
     2     -0.1283038     23  2.200                                                                 
     3     -1.3605826     23  2.400                                                                 
  local pseudopotential read in
  partial core-charges read in
  partial kinetic energy density read in
  atomic valenz-charges read in
  non local Contribution for L=           0  read in
    real space projection operators read in
  non local Contribution for L=           0  read in
    real space projection operators read in
  non local Contribution for L=           1  read in
    real space projection operators read in
  non local Contribution for L=           1  read in
    real space projection operators read in
  non local Contribution for L=           2  read in
    real space projection operators read in
  non local Contribution for L=           2  read in
    real space projection operators read in
    PAW grid and wavefunctions read in
 
   number of l-projection  operators is LMAX  =           6
   number of lm-projection operators is LMMAX =          18
 
 POTCAR:    PAW_PBE Mo_sv 02Feb2006               
   SHA256 =  2731df97e41766cc617548c5a8267718fdef1f509ac6bafa01e745abea2bdfaa Mo_sv/POTCAR          
   COPYR  = (c) Copyright 02Feb2006 Georg Kresse                                                    
   COPYR  = This file is part of the software VASP. Any use, copying, and all other rights are regul
   COPYR  = If you do not have a valid VASP license, you may not use, copy or distribute this file. 
   VRHFIN =Mo: 4p5s4d                                                                               
   LEXCH  = PE                                                                                      
   EATOM  =  1862.2866 eV,  136.8742 Ry                                                             
                                                                                                    
   TITEL  = PAW_PBE Mo_sv 02Feb2006                                                                 
   LULTRA =        F    use ultrasoft PP ?                                                          
   IUNSCR =        1    unscreen: 0-lin 1-nonlin 2-no                                               
   RPACOR =    2.200    partial core radius                                                         
   POMASS =   95.940; ZVAL   =   14.000    mass and valenz                                          
   RCORE  =    2.500    outmost cutoff radius                                                       
   RWIGS  =    2.750; RWIGS  =    1.455    wigner-seitz radius (au A)                               
   ENMAX  =  242.676; ENMIN  =  182.007 eV                                                          
   ICORE  =        3    local potential                                                             
   LCOR   =        T    correct aug charges                                                         
   LPAW   =        T    paw PP                                                                      
   EAUG   =  446.014                                                                                
   DEXC   =    0.000                                                                                
   RMAX   =    2.563    core radius for proj-oper                                                   
   RAUG   =    1.300    factor for augmentation sphere                                              
   RDEP   =    2.641    radius for radial grids                                                     
   RDEPT  =    2.031    core radius for aug-charge                                                  
                                                                                                    
   Atomic configuration                                                                             
   11 entries                                                                                       
     n  l   j            E        occ.                                                              
     1  0  0.50    -19819.0341   2.0000                                                             
     2  0  0.50     -2799.0127   2.0000                                                             
     2  1  1.50     -2502.0276   6.0000                                                             
     3  0  0.50      -476.4449   2.0000                                                             
     3  1  1.50      -379.1496   6.0000                                                             
     3  2  2.50      -220.9367  10.0000                                                             
     4  0  0.50       -64.3378   2.0000                                                             
     5  0  0.50        -4.0862   1.0000                                                             
     4  1  1.50       -38.4773   6.0000                                                             
     4  2  2.50        -3.7535   5.0000                                                             
     4  3  2.50        -1.3606   0.0000                                                             
   Description                                                                                      
     l       E           TYP  RCUT    TYP  RCUT                                                     
     0    -64.3377829     23  2.100                                                                 
     0     -4.0861640     23  2.400                                                                 
     1    -38.4772993     23  2.100                                                                 
     1     13.6058260     23  2.100                                                                 
     2     -3.7534941     23  2.400                                                                 
     2     -5.1140767     23  2.400                                                                 
     3     -4.0817478     23  2.500                                                                 
  local pseudopotential read in
  partial core-charges read in
  partial kinetic energy density read in
  atomic valenz-charges read in
  non local Contribution for L=           0  read in
    real space projection operators read in
  non local Contribution for L=           0  read in
    real space projection operators read in
  non local Contribution for L=           1  read in
    real space projection operators read in
  non local Contribution for L=           1  read in
    real space projection operators read in
  non local Contribution for L=           2  read in
    real space projection operators read in
  non local Contribution for L=           2  read in
    real space projection operators read in
    PAW grid and wavefunctions read in
 
   number of l-projection  operators is LMAX  =           6
   number of lm-projection operators is LMMAX =          18
 
 POTCAR:    PAW_PBE Ta_pv 07Sep2000               
   SHA256 =  00d0a14a36c127416459414afb8617d9754996fffa60a2465888e660b20a452f Ta_pv/POTCAR          
   COPYR  = (c) Copyright 07Sep2000 Georg Kresse                                                    
   COPYR  = This file is part of the software VASP. Any use, copying, and all other rights are regul
   COPYR  = If you do not have a valid VASP license, you may not use, copy or distribute this file. 
   VRHFIN =Ta:  5p6s5d                                                                              
   LEXCH  = PE                                                                                      
   EATOM  =  1047.1984 eV,   76.9669 Ry                                                             
                                                                                                    
   TITEL  = PAW_PBE Ta_pv 07Sep2000                                                                 
   LULTRA =        F    use ultrasoft PP ?                                                          
   IUNSCR =        1    unscreen: 0-lin 1-nonlin 2-no                                               
   RPACOR =    2.330    partial core radius                                                         
   POMASS =  180.948; ZVAL   =   11.000    mass and valenz                                          
   RCORE  =    2.500    outmost cutoff radius                                                       
   RWIGS  =    2.840; RWIGS  =    1.503    wigner-seitz radius (au A)                               
   ENMAX  =  223.667; ENMIN  =  167.750 eV                                                          
   RCLOC  =    2.205    cutoff for local pot                                                        
   LCOR   =        T    correct aug charges                                                         
   LPAW   =        T    paw PP                                                                      
   EAUG   =  377.421                                                                                
   DEXC   =    0.000                                                                                
   RMAX   =    2.551    core radius for proj-oper                                                   
   RAUG   =    1.300    factor for augmentation sphere                                              
   RDEP   =    2.526    radius for radial grids                                                     
   RDEPT  =    2.132    core radius for aug-charge                                                  
                                                                                                    
   Atomic configuration                                                                             
   15 entries                                                                                       
     n  l   j            E        occ.                                                              
     1  0  0.50    -67341.2801   2.0000                                                             
     2  0  0.50    -11566.9369   2.0000                                                             
     2  1  1.50    -10134.1175   6.0000                                                             
     3  0  0.50     -2648.5614   2.0000                                                             
     3  1  1.50     -2222.6006   6.0000                                                             
     3  2  2.50     -1726.3114  10.0000                                                             
     4  0  0.50      -538.6957   2.0000                                                             
     4  1  1.50      -399.0125   6.0000                                                             
     4  2  2.50      -220.3955  10.0000                                                             
     4  3  3.50       -23.0371  14.0000                                                             
     5  0  0.50       -71.2900   2.0000                                                             
     5  1  1.50       -37.8224   6.0000                                                             
     5  2  2.50        -2.6455   4.0000                                                             
     6  0  0.50        -4.9623   1.0000                                                             
     5  3  2.50        -1.3606   0.0000                                                             
   Description                                                                                      
     l       E           TYP  RCUT    TYP  RCUT                                                     
     1    -37.8224449     23  2.500                                                                 
     1      1.3605826     23  2.500                                                                 
     2     -2.6454718     23  2.500                                                                 
     2     -0.6258570     23  2.500                                                                 
     0     -4.9622674     23  2.500                                                                 
     0      4.7531427     23  2.500                                                                 
  local pseudopotential read in
  partial core-charges read in
  partial kinetic energy density read in
  atomic valenz-charges read in
  non local Contribution for L=           1  read in
    real space projection operators read in
  non local Contribution for L=           1  read in
    real space projection operators read in
  non local Contribution for L=           2  read in
    real space projection operators read in
  non local Contribution for L=           2  read in
    real space projection operators read in
  non local Contribution for L=           0  read in
    real space projection operators read in
  non local Contribution for L=           0  read in
    real space projection operators read in
    PAW grid and wavefunctions read in
 
   number of l-projection  operators is LMAX  =           6
   number of lm-projection operators is LMMAX =          18
 
 POTCAR:    PAW_PBE W_sv 04Sep2015                
   SHA256 =  931c2d770f65867ef30f3db3421922900fc0890ebac5c3e12f63b6a2064023d7 W_sv/POTCAR           
   COPYR  = (c) Copyright 04Sep2015 Georg Kresse                                                    
   COPYR  = This file is part of the software VASP. Any use, copying, and all other rights are regul
   COPYR  = If you do not have a valid VASP license, you may not use, copy or distribute this file. 
   VRHFIN =W : 5p6s5d                                                                               
   LEXCH  = PE                                                                                      
   EATOM  =  1865.5791 eV,  137.1162 Ry                                                             
                                                                                                    
   TITEL  = PAW_PBE W_sv 04Sep2015                                                                  
   LULTRA =        F    use ultrasoft PP ?                                                          
   IUNSCR =        1    unscreen: 0-lin 1-nonlin 2-no                                               
   RPACOR =    2.330    partial core radius                                                         
   POMASS =  183.850; ZVAL   =   14.000    mass and valenz                                          
   RCORE  =    2.500    outmost cutoff radius                                                       
   RWIGS  =    2.750; RWIGS  =    1.455    wigner-seitz radius (au A)                               
   ENMAX  =  223.057; ENMIN  =  167.293 eV                                                          
   ICORE  =        3    local potential                                                             
   LCOR   =        T    correct aug charges                                                         
   LPAW   =        T    paw PP                                                                      
   EAUG   =  373.438                                                                                
   DEXC   =    0.000                                                                                
   RMAX   =    2.565    core radius for proj-oper                                                   
   RAUG   =    1.300    factor for augmentation sphere                                              
   RDEP   =    2.539    radius for radial grids                                                     
   RDEPT  =    2.126    core radius for aug-charge                                                  
                                                                                                    
   Atomic configuration                                                                             
   15 entries                                                                                       
     n  l   j            E        occ.                                                              
     1  0  0.50    -69465.5834   2.0000                                                             
     2  0  0.50    -11986.2640   2.0000                                                             
     2  1  1.50    -10479.8613   6.0000                                                             
     3  0  0.50     -2759.0756   2.0000                                                             
     3  1  1.50     -2313.1855   6.0000                                                             
     3  2  2.50     -1801.1183  10.0000                                                             
     4  0  0.50      -567.6789   2.0000                                                             
     4  1  1.50      -421.4692   6.0000                                                             
     4  2  2.50      -236.3471  10.0000                                                             
     4  3  3.50       -31.2665  14.0000                                                             
     5  0  0.50       -77.1084   2.0000                                                             
     6  0  0.50        -5.1438   1.0000                                                             
     5  1  1.50       -41.3856   6.0000                                                             
     5  2  2.50        -3.3185   5.0000                                                             
     5  3  2.50        -1.3606   0.0000                                                             
   Description                                                                                      
     l       E           TYP  RCUT    TYP  RCUT                                                     
     0    -77.1084470     23  2.100                                                                 
     0     -5.1437956     23  2.300                                                                 
     1    -41.3855615     23  2.500                                                                 
     1     -2.7211652     23  2.500                                                                 
     2     -3.3185025     23  2.500                                                                 
     2     -1.5965151     23  2.500                                                                 
     3     -1.3605826     23  2.500                                                                 
  local pseudopotential read in
  partial core-charges read in
  partial kinetic energy density read in
  kinetic energy density of atom read in
  atomic valenz-charges read in
  non local Contribution for L=           0  read in
    real space projection operators read in
  non local Contribution for L=           0  read in
    real space projection operators read in
  non local Contribution for L=           1  read in
    real space projection operators read in
  non local Contribution for L=           1  read in
    real space projection operators read in
  non local Contribution for L=           2  read in
    real space projection operators read in
  non local Contribution for L=           2  read in
    real space projection operators read in
    PAW grid and wavefunctions read in
 
   number of l-projection  operators is LMAX  =           6
   number of lm-projection operators is LMMAX =          18
 
 -----------------------------------------------------------------------------
|                                                                             |
|               ----> ADVICE to this user running VASP <----                  |
|                                                                             |
|     You have a (more or less) 'large supercell' and for larger cells it     |
|     might be more efficient to use real-space projection operators.         |
|     Therefore, try LREAL= Auto in the INCAR file.                           |
|     Mind: For very accurate calculation, you might also keep the            |
|     reciprocal projection scheme (i.e. LREAL=.FALSE.).                      |
|                                                                             |
 -----------------------------------------------------------------------------

  PAW_PBE Nb_sv 25May2007               :
 energy of atom  1       EATOM=-1555.1913
 kinetic energy error for atom=    0.2155 (will be added to EATOM!!)
  PAW_PBE Mo_sv 02Feb2006               :
 energy of atom  2       EATOM=-1862.2866
 kinetic energy error for atom=    0.1102 (will be added to EATOM!!)
  PAW_PBE Ta_pv 07Sep2000               :
 energy of atom  3       EATOM=-1047.1984
 kinetic energy error for atom=    0.0394 (will be added to EATOM!!)
  PAW_PBE W_sv 04Sep2015                :
 energy of atom  4       EATOM=-1865.5791
 kinetic energy error for atom=    0.0589 (will be added to EATOM!!)
 
 
 POSCAR: Nb-Mo-Ta-W alloy
  positions in direct lattice
  No initial velocities read in
 exchange correlation table for  LEXCH =        8
   RHO(1)=    0.500       N(1)  =     2000
   RHO(2)=  100.500       N(2)  =     4000
 


--------------------------------------------------------------------------------------------------------


 ion  position               nearest neighbor table
   1  0.375  0.125  0.250-   2 2.85   4 2.85  15 2.85  36 2.85  37 2.85  43 2.85  54 2.85  58 2.85
                            32 3.29  32 3.29
   2  0.500  0.250  0.500-   1 2.85  16 2.85  32 2.85  39 2.85  44 2.85  51 2.85  61 2.85  63 2.85
                            36 3.29  40 3.29  37 3.29
   3  0.000  0.250  0.500-   5 2.85  20 2.85  27 2.85  33 2.85  38 2.85  55 2.85  59 2.85  62 2.85
                            31 3.29  36 3.29
   4  0.250  0.000  0.500-   1 2.85   8 2.85  12 2.85  22 2.85  24 2.85  27 2.85  32 2.85  59 2.85
                            30 3.29  36 3.29  37 3.29  31 3.29
   5  0.125  0.375  0.250-   3 2.85   7 2.85  11 2.85  14 2.85  15 2.85  36 2.85  48 2.85  60 2.85
                            38 3.29  38 3.29
   6  0.625  0.625  0.750-  10 2.85  13 2.85  18 2.85  28 2.85  34 2.85  40 2.85  47 2.85  64 2.85

   7  0.000  0.500  0.000-   5 2.85   9 2.85  26 2.85  33 2.85  38 2.85  49 2.85  56 2.85  62 2.85

   8  0.375  0.875  0.750-   4 2.85  10 2.85  30 2.85  37 2.85  43 2.85  47 2.85  57 2.85  58 2.85
                            32 3.29
   9  0.125  0.625  0.750-   7 2.85  11 2.85  14 2.85  30 2.85  42 2.85  45 2.85  48 2.85  57 2.85
                            38 3.29
  10  0.500  0.750  0.000-   6 2.85   8 2.85  17 2.85  21 2.85  24 2.85  25 2.85  29 2.85  46 2.85
                            43 3.29
  11  0.000  0.500  0.500-   5 2.85   9 2.85  26 2.85  33 2.85  38 2.85  49 2.85  56 2.85  62 2.85
                            42 3.29  34 3.29
  12  0.125  0.875  0.250-   4 2.85  30 2.85  31 2.85  41 2.85  42 2.85  45 2.85  57 2.85  58 2.85

  13  0.750  0.750  0.000-   6 2.85  17 2.85  23 2.85  25 2.85  26 2.85  35 2.85  46 2.85  56 2.85

  14  0.250  0.500  0.000-   5 2.85   9 2.85  16 2.85  21 2.85  29 2.85  38 2.85  49 2.85  61 2.85

  15  0.250  0.250  0.000-   1 2.85   5 2.85  16 2.85  27 2.85  32 2.85  38 2.85  59 2.85  61 2.85
                            36 3.29  36 3.29
  16  0.375  0.375  0.750-   2 2.85  14 2.85  15 2.85  36 2.85  40 2.85  48 2.85  54 2.85  64 2.85
                            32 3.29  38 3.29
  17  0.625  0.875  0.250-  10 2.85  13 2.85  28 2.85  37 2.85  43 2.85  47 2.85  52 2.85  53 2.85
                            44 3.29  46 3.29  23 3.29  24 3.29  25 3.29  46 3.29
  18  0.750  0.500  0.000-   6 2.85  25 2.85  26 2.85  33 2.85  39 2.85  56 2.85  62 2.85  63 2.85
                            19 3.29  34 3.29  64 3.29  34 3.29
  19  0.750  0.250  0.000-  20 2.85  33 2.85  39 2.85  44 2.85  51 2.85  55 2.85  62 2.85  63 2.85
                            54 3.29  50 3.29  60 3.29  18 3.29  52 3.29  50 3.29
  20  0.875  0.125  0.750-   3 2.85  19 2.85  31 2.85  41 2.85  50 2.85  52 2.85  53 2.85  60 2.85
                            33 3.29  35 3.29  55 3.29  59 3.29  51 3.29  55 3.29
  21  0.375  0.625  0.750-  10 2.85  14 2.85  30 2.85  40 2.85  47 2.85  48 2.85  57 2.85  64 2.85
                            29 3.29  29 3.29
  22  0.125  0.875  0.750-   4 2.85  30 2.85  31 2.85  41 2.85  42 2.85  45 2.85  57 2.85  58 2.85
                            35 3.29  59 3.29
  23  0.875  0.875  0.250-  13 2.85  28 2.85  31 2.85  41 2.85  42 2.85  45 2.85  52 2.85  53 2.85
                            35 3.29  17 3.29  55 3.29  56 3.29  35 3.29
  24  0.375  0.875  0.250-   4 2.85  10 2.85  30 2.85  37 2.85  43 2.85  47 2.85  57 2.85  58 2.85
                            17 3.29  29 3.29
  25  0.625  0.625  0.250-  10 2.85  13 2.85  18 2.85  28 2.85  34 2.85  40 2.85  47 2.85  64 2.85
                            29 3.29  17 3.29  56 3.29  39 3.29
  26  0.875  0.625  0.750-   7 2.85  11 2.85  13 2.85  18 2.85  28 2.85  34 2.85  42 2.85  45 2.85
                            33 3.29  35 3.29  56 3.29  56 3.29
  27  0.125  0.125  0.250-   3 2.85   4 2.85  15 2.85  31 2.85  36 2.85  41 2.85  58 2.85  60 2.85
                            59 3.29  55 3.29  59 3.29
  28  0.750  0.750  0.500-   6 2.85  17 2.85  23 2.85  25 2.85  26 2.85  35 2.85  46 2.85  56 2.85
                            34 3.29  47 3.29  53 3.29  42 3.29
  29  0.375  0.625  0.250-  10 2.85  14 2.85  30 2.85  40 2.85  47 2.85  48 2.85  57 2.85  64 2.85
                            21 3.29  49 3.29  24 3.29  61 3.29  25 3.29  21 3.29
  30  0.250  0.750  0.500-   8 2.85   9 2.85  12 2.85  21 2.85  22 2.85  24 2.85  29 2.85  49 2.85
                            42 3.29  47 3.29  48 3.29   4 3.29  57 3.29  57 3.29
  31  0.000  0.000  0.500-  12 2.85  20 2.85  22 2.85  23 2.85  27 2.85  35 2.85  55 2.85  59 2.85
                            41 3.29  42 3.29  53 3.29   3 3.29   4 3.29  41 3.29
  32  0.375  0.125  0.750-   2 2.85   4 2.85  15 2.85  36 2.85  37 2.85  43 2.85  54 2.85  58 2.85
                            16 3.29  51 3.29   8 3.29   1 3.29  59 3.29   1 3.29
  33  0.875  0.375  0.750-   3 2.85   7 2.85  11 2.85  18 2.85  19 2.85  34 2.85  50 2.85  60 2.85
                            38 3.29  26 3.29  20 3.29  62 3.29  63 3.29  62 3.29
  34  0.750  0.500  0.500-   6 2.85  25 2.85  26 2.85  33 2.85  39 2.85  56 2.85  62 2.85  63 2.85
                            40 3.29  50 3.29  28 3.29  11 3.29  18 3.29  18 3.29
  35  0.875  0.875  0.750-  13 2.85  28 2.85  31 2.85  41 2.85  42 2.85  45 2.85  52 2.85  53 2.85
                            26 3.29  20 3.29  46 3.29  22 3.29  23 3.29  23 3.29
  36  0.250  0.250  0.500-   1 2.85   5 2.85  16 2.85  27 2.85  32 2.85  38 2.85  59 2.85  61 2.85
                             2 3.29  15 3.29  48 3.29   3 3.29   4 3.29  15 3.29
  37  0.500  0.000  0.500-   1 2.85   8 2.85  17 2.85  24 2.85  32 2.85  44 2.85  46 2.85  51 2.85
                             2 3.29   4 3.29  47 3.29  43 3.29  53 3.29  43 3.29
  38  0.125  0.375  0.750-   3 2.85   7 2.85  11 2.85  14 2.85  15 2.85  36 2.85  48 2.85  60 2.85
                            33 3.29   9 3.29   5 3.29  59 3.29  16 3.29   5 3.29
  39  0.625  0.375  0.250-   2 2.85  18 2.85  19 2.85  34 2.85  40 2.85  50 2.85  54 2.85  64 2.85
                            44 3.29  61 3.29  62 3.29  63 3.29  25 3.29  63 3.29
  40  0.500  0.500  0.500-   6 2.85  16 2.85  21 2.85  25 2.85  29 2.85  39 2.85  61 2.85  63 2.85
                            47 3.29  48 3.29  34 3.29   2 3.29  64 3.29  64 3.29
  41  0.000  0.000  0.000-  12 2.85  20 2.85  22 2.85  23 2.85  27 2.85  35 2.85  55 2.85  59 2.85
                            52 3.29  31 3.29  58 3.29  45 3.29  60 3.29  31 3.29
  42  0.000  0.750  0.500-   9 2.85  12 2.85  22 2.85  23 2.85  26 2.85  35 2.85  49 2.85  56 2.85
                            31 3.29  11 3.29  45 3.29  28 3.29  30 3.29  45 3.29
  43  0.500  0.000  0.000-   1 2.85   8 2.85  17 2.85  24 2.85  32 2.85  44 2.85  46 2.85  51 2.85
                            37 3.29  10 3.29  52 3.29  54 3.29  58 3.29  37 3.29
  44  0.625  0.125  0.250-   2 2.85  19 2.85  37 2.85  43 2.85  50 2.85  52 2.85  53 2.85  54 2.85
                            17 3.29  39 3.29  51 3.29  55 3.29  51 3.29
  45  0.000  0.750  0.000-   9 2.85  12 2.85  22 2.85  23 2.85  26 2.85  35 2.85  49 2.85  56 2.85
                            41 3.29  42 3.29  57 3.29  42 3.29
  46  0.625  0.875  0.750-  10 2.85  13 2.85  28 2.85  37 2.85  43 2.85  47 2.85  52 2.85  53 2.85
                            51 3.29  35 3.29  17 3.29  17 3.29
  47  0.500  0.750  0.500-   6 2.85   8 2.85  17 2.85  21 2.85  24 2.85  25 2.85  29 2.85  46 2.85
                            30 3.29  37 3.29  40 3.29  28 3.29
  48  0.250  0.500  0.500-   5 2.85   9 2.85  16 2.85  21 2.85  29 2.85  38 2.85  49 2.85  61 2.85
                            40 3.29  36 3.29  30 3.29
  49  0.125  0.625  0.250-   7 2.85  11 2.85  14 2.85  30 2.85  42 2.85  45 2.85  48 2.85  57 2.85
                            56 3.29  29 3.29
  50  0.750  0.250  0.500-  20 2.85  33 2.85  39 2.85  44 2.85  51 2.85  55 2.85  62 2.85  63 2.85
                            34 3.29  19 3.29  53 3.29  19 3.29
  51  0.625  0.125  0.750-   2 2.85  19 2.85  37 2.85  43 2.85  50 2.85  52 2.85  53 2.85  54 2.85
                            20 3.29  32 3.29  44 3.29  46 3.29  63 3.29  44 3.29
  52  0.750  0.000  0.000-  17 2.85  20 2.85  23 2.85  35 2.85  44 2.85  46 2.85  51 2.85  55 2.85
                            41 3.29  43 3.29  53 3.29  19 3.29  53 3.29
  53  0.750  0.000  0.500-  17 2.85  20 2.85  23 2.85  35 2.85  44 2.85  46 2.85  51 2.85  55 2.85
                            28 3.29  50 3.29  37 3.29  52 3.29  31 3.29  52 3.29
  54  0.500  0.250  0.000-   1 2.85  16 2.85  32 2.85  39 2.85  44 2.85  51 2.85  61 2.85  63 2.85
                            19 3.29  43 3.29  64 3.29
  55  0.875  0.125  0.250-   3 2.85  19 2.85  31 2.85  41 2.85  50 2.85  52 2.85  53 2.85  60 2.85
                            27 3.29  20 3.29  23 3.29  44 3.29  62 3.29  20 3.29
  56  0.875  0.625  0.250-   7 2.85  11 2.85  13 2.85  18 2.85  28 2.85  34 2.85  42 2.85  45 2.85
                            25 3.29  26 3.29  23 3.29  49 3.29  62 3.29  26 3.29
  57  0.250  0.750  0.000-   8 2.85   9 2.85  12 2.85  21 2.85  22 2.85  24 2.85  29 2.85  49 2.85
                            45 3.29  30 3.29  58 3.29  30 3.29
  58  0.250  0.000  0.000-   1 2.85   8 2.85  12 2.85  22 2.85  24 2.85  27 2.85  32 2.85  59 2.85
                            43 3.29  57 3.29  41 3.29
  59  0.125  0.125  0.750-   3 2.85   4 2.85  15 2.85  31 2.85  36 2.85  41 2.85  58 2.85  60 2.85
                            22 3.29  38 3.29  27 3.29  20 3.29  32 3.29  27 3.29
  60  0.000  0.250  0.000-   5 2.85  20 2.85  27 2.85  33 2.85  38 2.85  55 2.85  59 2.85  62 2.85
                            41 3.29  19 3.29
  61  0.375  0.375  0.250-   2 2.85  14 2.85  15 2.85  36 2.85  40 2.85  48 2.85  54 2.85  64 2.85
                            29 3.29  39 3.29
  62  0.875  0.375  0.250-   3 2.85   7 2.85  11 2.85  18 2.85  19 2.85  34 2.85  50 2.85  60 2.85
                            33 3.29  55 3.29  56 3.29  39 3.29  33 3.29
  63  0.625  0.375  0.750-   2 2.85  18 2.85  19 2.85  34 2.85  40 2.85  50 2.85  54 2.85  64 2.85
                            51 3.29  33 3.29  39 3.29  39 3.29
  64  0.500  0.500  0.000-   6 2.85  16 2.85  21 2.85  25 2.85  29 2.85  39 2.85  61 2.85  63 2.85
                            54 3.29  18 3.29  40 3.29  40 3.29
 
  LATTYP: Found a simple tetragonal cell.
 ALAT       =    13.1600000000
 C/A-ratio  =     0.5000000000
  
  Lattice vectors:
  
 A1 = (  13.1600000000,   0.0000000000,   0.0000000000)
 A2 = (   0.0000000000,  13.1600000000,   0.0000000000)
 A3 = (   0.0000000000,   0.0000000000,   6.5800000000)


Analysis of symmetry for initial positions (statically):
=====================================================================
 Subroutine PRICEL returns:
 Original cell was already a primitive cell.
 

 Routine SETGRP: Setting up the symmetry group for a 
 simple tetragonal supercell.


 Subroutine GETGRP returns: Found  1 space group operations
 (whereof  1 operations were pure point group operations)
 out of a pool of 16 trial point group operations.


The static configuration has the point symmetry C_1 .


Analysis of symmetry for dynamics (positions and initial velocities):
=====================================================================
 Subroutine PRICEL returns:
 Original cell was already a primitive cell.
 

 Routine SETGRP: Setting up the symmetry group for a 
 simple tetragonal supercell.


 Subroutine GETGRP returns: Found  1 space group operations
 (whereof  1 operations were pure point group operations)
 out of a pool of 16 trial point group operations.


The dynamic configuration has the point symmetry C_1 .


 Subroutine INISYM returns: Found  1 space group operations
 (whereof  1 operations are pure point group operations),
 and found     1 'primitive' translations


----------------------------------------------------------------------------------------

                                     Primitive cell                                     

  volume of cell :    1139.5612

  direct lattice vectors                    reciprocal lattice vectors
    13.160000000  0.000000000  0.000000000     0.075987842  0.000000000  0.000000000
     0.000000000 13.160000000  0.000000000     0.000000000  0.075987842  0.000000000
     0.000000000  0.000000000  6.580000000     0.000000000  0.000000000  0.151975684

  length of vectors
    13.160000000 13.160000000  6.580000000     0.075987842  0.075987842  0.151975684

  position of ions in fractional coordinates (direct lattice)
     0.375000000  0.125000000  0.250000000
     0.500000000  0.250000000  0.500000000
     0.000000000  0.250000000  0.500000000
     0.250000000  0.000000000  0.500000000
     0.125000000  0.375000000  0.250000000
     0.625000000  0.625000000  0.750000000
     0.000000000  0.500000000  0.000000000
     0.375000000  0.875000000  0.750000000
     0.125000000  0.625000000  0.750000000
     0.500000000  0.750000000  0.000000000
     0.000000000  0.500000000  0.500000000
     0.125000000  0.875000000  0.250000000
     0.750000000  0.750000000  0.000000000
     0.250000000  0.500000000  0.000000000
     0.250000000  0.250000000  0.000000000
     0.375000000  0.375000000  0.750000000
     0.625000000  0.875000000  0.250000000
     0.750000000  0.500000000  0.000000000
     0.750000000  0.250000000  0.000000000
     0.875000000  0.125000000  0.750000000
     0.375000000  0.625000000  0.750000000
     0.125000000  0.875000000  0.750000000
     0.875000000  0.875000000  0.250000000
     0.375000000  0.875000000  0.250000000
     0.625000000  0.625000000  0.250000000
     0.875000000  0.625000000  0.750000000
     0.125000000  0.125000000  0.250000000
     0.750000000  0.750000000  0.500000000
     0.375000000  0.625000000  0.250000000
     0.250000000  0.750000000  0.500000000
     0.000000000  0.000000000  0.500000000
     0.375000000  0.125000000  0.750000000
     0.875000000  0.375000000  0.750000000
     0.750000000  0.500000000  0.500000000
     0.875000000  0.875000000  0.750000000
     0.250000000  0.250000000  0.500000000
     0.500000000  0.000000000  0.500000000
     0.125000000  0.375000000  0.750000000
     0.625000000  0.375000000  0.250000000
     0.500000000  0.500000000  0.500000000
     0.000000000  0.000000000  0.000000000
     0.000000000  0.750000000  0.500000000
     0.500000000  0.000000000  0.000000000
     0.625000000  0.125000000  0.250000000
     0.000000000  0.750000000  0.000000000
     0.625000000  0.875000000  0.750000000
     0.500000000  0.750000000  0.500000000
     0.250000000  0.500000000  0.500000000
     0.125000000  0.625000000  0.250000000
     0.750000000  0.250000000  0.500000000
     0.625000000  0.125000000  0.750000000
     0.750000000  0.000000000  0.000000000
     0.750000000  0.000000000  0.500000000
     0.500000000  0.250000000  0.000000000
     0.875000000  0.125000000  0.250000000
     0.875000000  0.625000000  0.250000000
     0.250000000  0.750000000  0.000000000
     0.250000000  0.000000000  0.000000000
     0.125000000  0.125000000  0.750000000
     0.000000000  0.250000000  0.000000000
     0.375000000  0.375000000  0.250000000
     0.875000000  0.375000000  0.250000000
     0.625000000  0.375000000  0.750000000
     0.500000000  0.500000000  0.000000000

  ion indices of the primitive-cell ions
   primitive index   ion index
                 1           1
                 2           2
                 3           3
                 4           4
                 5           5
                 6           6
                 7           7
                 8           8
                 9           9
                10          10
                11          11
                12          12
                13          13
                14          14
                15          15
                16          16
                17          17
                18          18
                19          19
                20          20
                21          21
                22          22
                23          23
                24          24
                25          25
                26          26
                27          27
                28          28
                29          29
                30          30
                31          31
                32          32
                33          33
                34          34
                35          35
                36          36
                37          37
                38          38
                39          39
                40          40
                41          41
                42          42
                43          43
                44          44
                45          45
                46          46
                47          47
                48          48
                49          49
                50          50
                51          51
                52          52
                53          53
                54          54
                55          55
                56          56
                57          57
                58          58
                59          59
                60          60
                61          61
                62          62
                63          63
                64          64

----------------------------------------------------------------------------------------

 
 
 KPOINTS: K-Spacing Value to Generate K-Mesh: 0.03

Automatic generation of k-mesh.
 Grid dimensions read from file:
 generate k-points for:    3    3    5

 Generating k-lattice:

  Cartesian coordinates                     Fractional coordinates (reciprocal lattice)
     0.025329281  0.000000000  0.000000000     0.333333333  0.000000000  0.000000000
     0.000000000  0.025329281  0.000000000     0.000000000  0.333333333  0.000000000
     0.000000000  0.000000000  0.030395137     0.000000000  0.000000000  0.200000000

  Length of vectors
     0.025329281  0.025329281  0.030395137

  Shift w.r.t. Gamma in fractional coordinates (k-lattice)
     0.000000000  0.000000000  0.000000000

 
 Subroutine IBZKPT returns following result:
 ===========================================
 
 Found     23 irreducible k-points:
 
 Following reciprocal coordinates:
            Coordinates               Weight
  0.000000  0.000000  0.000000      1.000000
  0.333333  0.000000  0.000000      2.000000
  0.000000  0.333333  0.000000      2.000000
  0.333333  0.333333  0.000000      2.000000
 -0.333333  0.333333  0.000000      2.000000
  0.000000  0.000000  0.200000      2.000000
  0.333333  0.000000  0.200000      2.000000
  0.000000  0.333333  0.200000      2.000000
 -0.333333  0.000000  0.200000      2.000000
  0.000000 -0.333333  0.200000      2.000000
  0.333333  0.333333  0.200000      2.000000
 -0.333333  0.333333  0.200000      2.000000
 -0.333333 -0.333333  0.200000      2.000000
  0.333333 -0.333333  0.200000      2.000000
  0.000000  0.000000  0.400000      2.000000
  0.333333  0.000000  0.400000      2.000000
  0.000000  0.333333  0.400000      2.000000
 -0.333333  0.000000  0.400000      2.000000
  0.000000 -0.333333  0.400000      2.000000
  0.333333  0.333333  0.400000      2.000000
 -0.333333  0.333333  0.400000      2.000000
 -0.333333 -0.333333  0.400000      2.000000
  0.333333 -0.333333  0.400000      2.000000
 
 Following cartesian coordinates:
            Coordinates               Weight
  0.000000  0.000000  0.000000      1.000000
  0.025329  0.000000  0.000000      2.000000
  0.000000  0.025329  0.000000      2.000000
  0.025329  0.025329  0.000000      2.000000
 -0.025329  0.025329  0.000000      2.000000
  0.000000  0.000000  0.030395      2.000000
  0.025329  0.000000  0.030395      2.000000
  0.000000  0.025329  0.030395      2.000000
 -0.025329  0.000000  0.030395      2.000000
  0.000000 -0.025329  0.030395      2.000000
  0.025329  0.025329  0.030395      2.000000
 -0.025329  0.025329  0.030395      2.000000
 -0.025329 -0.025329  0.030395      2.000000
  0.025329 -0.025329  0.030395      2.000000
  0.000000  0.000000  0.060790      2.000000
  0.025329  0.000000  0.060790      2.000000
  0.000000  0.025329  0.060790      2.000000
 -0.025329  0.000000  0.060790      2.000000
  0.000000 -0.025329  0.060790      2.000000
  0.025329  0.025329  0.060790      2.000000
 -0.025329  0.025329  0.060790      2.000000
 -0.025329 -0.025329  0.060790      2.000000
  0.025329 -0.025329  0.060790      2.000000
 


--------------------------------------------------------------------------------------------------------




 Dimension of arrays:
   k-points           NKPTS =     23   k-points in BZ     NKDIM =     23   number of bands    NBANDS=    504
   number of dos      NEDOS =    301   number of ions     NIONS =     64
   non local maximal  LDIM  =      6   non local SUM 2l+1 LMDIM =     18
   total plane-waves  NPLWV = 176400
   max r-space proj   IRMAX =      1   max aug-charges    IRDMAX=   9034
   dimension x,y,z NGX =    70 NGY =   70 NGZ =   36
   dimension x,y,z NGXF=   140 NGYF=  140 NGZF=   72
   support grid    NGXF=   140 NGYF=  140 NGZF=   72
   ions per type =              16  12  15  21
   NGX,Y,Z   is equivalent  to a cutoff of   8.84,  8.84,  9.10 a.u.
   NGXF,Y,Z  is equivalent  to a cutoff of  17.69, 17.69, 18.19 a.u.

 SYSTEM =  unknown system                          
 POSCAR =  Nb-Mo-Ta-W alloy                        

 Startparameter for this run:
   NWRITE =      2    write-flag & timer
   PREC   = accura    normal or accurate (medium, high low for compatibility)
   ISTART =      0    job   : 0-new  1-cont  2-samecut
   ICHARG =      2    charge: 1-file 2-atom 10-const
   ISPIN  =      1    spin polarized calculation?
   LNONCOLLINEAR =      F non collinear calculations
   LSORBIT =      F    spin-orbit coupling
   INIWAV =      1    electr: 0-lowe 1-rand  2-diag
   LASPH  =      F    aspherical Exc in radial PAW
 Electronic Relaxation 1
   ENCUT  =  250.0 eV  18.37 Ry    4.29 a.u.  16.97 16.97  8.48*2*pi/ulx,y,z
   ENINI  =  250.0     initial cutoff
   ENAUG  =  455.7 eV  augmentation charge cutoff
   NELM   =     80;   NELMIN=  2; NELMDL= -5     # of ELM steps 
   EDIFF  = 0.1E-07   stopping-criterion for ELM
   LREAL  =      F    real-space projection
   NLSPLINE    = F    spline interpolate recip. space projectors
   LCOMPAT=      F    compatible to vasp.4.4
   GGA_COMPAT  = T    GGA compatible to vasp.4.4-vasp.4.6
   LMAXPAW     = -100 max onsite density
   LMAXMIX     =    2 max onsite mixed and CHGCAR
   VOSKOWN=      0    Vosko Wilk Nusair interpolation
   ROPT   =    0.00000   0.00000   0.00000   0.00000
 Ionic relaxation
   EDIFFG = -.1E-01   stopping-criterion for IOM
   NSW    =      0    number of steps for IOM
   NBLOCK =      1;   KBLOCK =      1    inner block; outer block 
   IBRION =     -1    ionic relax: 0-MD 1-quasi-New 2-CG
   NFREE  =      0    steps in history (QN), initial steepest desc. (CG)
   ISIF   =      2    stress and relaxation
   IWAVPR =     10    prediction:  0-non 1-charg 2-wave 3-comb
   ISYM   =      2    0-nonsym 1-usesym 2-fastsym
   LCORR  =      T    Harris-Foulkes like correction to forces

   POTIM  = 0.5000    time-step for ionic-motion
   TEIN   =    0.0    initial temperature
   TEBEG  =    0.0;   TEEND  =   0.0 temperature during run
   SMASS  =  -3.00    Nose mass-parameter (am)
   estimated Nose-frequenzy (Omega)   =  0.10E-29 period in steps = 0.13E+47 mass=  -0.396E-26a.u.
   SCALEE = 1.0000    scale energy and forces
   NPACO  =    256;   APACO  = 10.0  distance and # of slots for P.C.
   PSTRESS=    0.0 pullay stress

  Mass of Ions in am
   POMASS =  92.91 95.94180.95183.85
  Ionic Valenz
   ZVAL   =  13.00 14.00 11.00 14.00
  Atomic Wigner-Seitz radii
   RWIGS  =  -1.00 -1.00 -1.00 -1.00
  virtual crystal weights 
   VCA    =   1.00  1.00  1.00  1.00
   NELECT =     835.0000    total number of electrons
   NUPDOWN=      -1.0000    fix difference up-down

 DOS related values:
   EMIN   =  10.00;   EMAX   =-10.00  energy-range for DOS
   EFERMI =   0.00
   ISMEAR =     0;   SIGMA  =   0.02  broadening in eV -4-tet -1-fermi 0-gaus

 Electronic relaxation 2 (details)
   IALGO  =     38    algorithm
   LDIAG  =      T    sub-space diagonalisation (order eigenvalues)
   LSUBROT=      F    optimize rotation matrix (better conditioning)
   TURBO    =      0    0=normal 1=particle mesh
   IRESTART =      0    0=no restart 2=restart with 2 vectors
   NREBOOT  =      0    no. of reboots
   NMIN     =      0    reboot dimension
   EREF     =   0.00    reference energy to select bands
   IMIX   =      4    mixing-type and parameters
     AMIX     =   0.40;   BMIX     =  1.00
     AMIX_MAG =   1.60;   BMIX_MAG =  1.00
     AMIN     =   0.10
     WC   =   100.;   INIMIX=   1;  MIXPRE=   1;  MAXMIX= -45

 Intra band minimization:
   WEIMIN = 0.0000     energy-eigenvalue tresh-hold
   EBREAK =  0.50E-11  absolut break condition
   DEPER  =   0.30     relativ break condition  

   TIME   =   0.40     timestep for ELM

  volume/ion in A,a.u.               =      17.81       120.16
  Fermi-wavevector in a.u.,A,eV,Ry     =   1.475903  2.789052 29.637423  2.178289
  Thomas-Fermi vector in A             =   2.590495
 
 Write flags
   LWAVE        =      F    write WAVECAR
   LDOWNSAMPLE  =      F    k-point downsampling of WAVECAR
   LCHARG       =      F    write CHGCAR
   LVTOT        =      F    write LOCPOT, total local potential
   LVHAR        =      F    write LOCPOT, Hartree potential only
   LELF         =      F    write electronic localiz. function (ELF)
   LORBIT       =      0    0 simple, 1 ext, 2 COOP (PROOUT), +10 PAW based schemes


 Dipole corrections
   LMONO  =      F    monopole corrections only (constant potential shift)
   LDIPOL =      F    correct potential (dipole corrections)
   IDIPOL =      0    1-x, 2-y, 3-z, 4-all directions 
   EPSILON=  1.0000000 bulk dielectric constant

 Core level calculations are selected ICORELEVEL =  1
 Exchange correlation treatment:
   GGA     =    PE    GGA type
   LEXCH   =     8    internal setting for exchange type
   LIBXC   =     F    Libxc                    
   VOSKOWN =     0    Vosko Wilk Nusair interpolation
   LHFCALC =     F    Hartree Fock is set to
   LHFONE  =     F    Hartree Fock one center treatment
   AEXX    =    0.0000 exact exchange contribution

 Linear response parameters
   LEPSILON=     F    determine dielectric tensor
   LRPA    =     F    only Hartree local field effects (RPA)
   LNABLA  =     F    use nabla operator in PAW spheres
   LVEL    =     F    velocity operator in full k-point grid
   CSHIFT  =0.1000    complex shift for real part using Kramers Kronig
   OMEGAMAX=  -1.0    maximum frequency
   DEG_THRESHOLD= 0.2000000E-02 threshold for treating states as degnerate
   RTIME   =   -0.100 relaxation time in fs
  (WPLASMAI=    0.000 imaginary part of plasma frequency in eV, 0.658/RTIME)
   DFIELD  = 0.0000000 0.0000000 0.0000000 field for delta impulse in time
 
  Optional k-point grid parameters
   LKPOINTS_OPT  =     F    use optional k-point grid
   KPOINTS_OPT_MODE=     1    mode for optional k-point grid
 
 Orbital magnetization related:
   ORBITALMAG=     F  switch on orbital magnetization
   LCHIMAG   =     F  perturbation theory with respect to B field
   DQ        =  0.001000  dq finite difference perturbation B field
   LLRAUG    =     F  two centre corrections for induced B field



--------------------------------------------------------------------------------------------------------


 Static calculation
 charge density and potential will be updated during run
 non-spin polarized calculation
 Variant of blocked Davidson
 Davidson routine will perform the subspace rotation
 perform sub-space diagonalisation
    after iterative eigenvector-optimisation
 modified Broyden-mixing scheme, WC =      100.0
 initial mixing is a Kerker type mixing with AMIX =  0.4000 and BMIX =      1.0000
 Hartree-type preconditioning will be used
 using additional bands           86
 reciprocal scheme for non local part
 use partial core corrections
 calculate Harris-corrections to forces 
   (improved forces if not selfconsistent)
 use gradient corrections 
 use of overlap-Matrix (Vanderbilt PP)
 Gauss-broadening in eV      SIGMA  =   0.02


--------------------------------------------------------------------------------------------------------


  energy-cutoff  :      250.00
  volume of cell :     1139.56
      direct lattice vectors                 reciprocal lattice vectors
    13.160000000  0.000000000  0.000000000     0.075987842  0.000000000  0.000000000
     0.000000000 13.160000000  0.000000000     0.000000000  0.075987842  0.000000000
     0.000000000  0.000000000  6.580000000     0.000000000  0.000000000  0.151975684

  length of vectors
    13.160000000 13.160000000  6.580000000     0.075987842  0.075987842  0.151975684


 
 k-points in units of 2pi/SCALE and weight: K-Spacing Value to Generate K-Mesh: 0.03
   0.00000000  0.00000000  0.00000000       0.022
   0.02532928  0.00000000  0.00000000       0.044
   0.00000000  0.02532928  0.00000000       0.044
   0.02532928  0.02532928  0.00000000       0.044
  -0.02532928  0.02532928  0.00000000       0.044
   0.00000000  0.00000000  0.03039514       0.044
   0.02532928  0.00000000  0.03039514       0.044
   0.00000000  0.02532928  0.03039514       0.044
  -0.02532928  0.00000000  0.03039514       0.044
   0.00000000 -0.02532928  0.03039514       0.044
   0.02532928  0.02532928  0.03039514       0.044
  -0.02532928  0.02532928  0.03039514       0.044
  -0.02532928 -0.02532928  0.03039514       0.044
   0.02532928 -0.02532928  0.03039514       0.044
   0.00000000  0.00000000  0.06079027       0.044
   0.02532928  0.00000000  0.06079027       0.044
   0.00000000  0.02532928  0.06079027       0.044
  -0.02532928  0.00000000  0.06079027       0.044
   0.00000000 -0.02532928  0.06079027       0.044
   0.02532928  0.02532928  0.06079027       0.044
  -0.02532928  0.02532928  0.06079027       0.044
  -0.02532928 -0.02532928  0.06079027       0.044
   0.02532928 -0.02532928  0.06079027       0.044
 
 k-points in reciprocal lattice and weights: K-Spacing Value to Generate K-Mesh: 0.03
   0.00000000  0.00000000  0.00000000       0.022
   0.33333333  0.00000000  0.00000000       0.044
   0.00000000  0.33333333  0.00000000       0.044
   0.33333333  0.33333333  0.00000000       0.044
  -0.33333333  0.33333333  0.00000000       0.044
   0.00000000  0.00000000  0.20000000       0.044
   0.33333333  0.00000000  0.20000000       0.044
   0.00000000  0.33333333  0.20000000       0.044
  -0.33333333  0.00000000  0.20000000       0.044
   0.00000000 -0.33333333  0.20000000       0.044
   0.33333333  0.33333333  0.20000000       0.044
  -0.33333333  0.33333333  0.20000000       0.044
  -0.33333333 -0.33333333  0.20000000       0.044
   0.33333333 -0.33333333  0.20000000       0.044
   0.00000000  0.00000000  0.40000000       0.044
   0.33333333  0.00000000  0.40000000       0.044
   0.00000000  0.33333333  0.40000000       0.044
  -0.33333333  0.00000000  0.40000000       0.044
   0.00000000 -0.33333333  0.40000000       0.044
   0.33333333  0.33333333  0.40000000       0.044
  -0.33333333  0.33333333  0.40000000       0.044
  -0.33333333 -0.33333333  0.40000000       0.044
   0.33333333 -0.33333333  0.40000000       0.044
 
 position of ions in fractional coordinates (direct lattice) 
   0.37500000  0.12500000  0.25000000
   0.50000000  0.25000000  0.50000000
   0.00000000  0.25000000  0.50000000
   0.25000000  0.00000000  0.50000000
   0.12500000  0.37500000  0.25000000
   0.62500000  0.62500000  0.75000000
   0.00000000  0.50000000  0.00000000
   0.37500000  0.87500000  0.75000000
   0.12500000  0.62500000  0.75000000
   0.50000000  0.75000000  0.00000000
   0.00000000  0.50000000  0.50000000
   0.12500000  0.87500000  0.25000000
   0.75000000  0.75000000  0.00000000
   0.25000000  0.50000000  0.00000000
   0.25000000  0.25000000  0.00000000
   0.37500000  0.37500000  0.75000000
   0.62500000  0.87500000  0.25000000
   0.75000000  0.50000000  0.00000000
   0.75000000  0.25000000  0.00000000
   0.87500000  0.12500000  0.75000000
   0.37500000  0.62500000  0.75000000
   0.12500000  0.87500000  0.75000000
   0.87500000  0.87500000  0.25000000
   0.37500000  0.87500000  0.25000000
   0.62500000  0.62500000  0.25000000
   0.87500000  0.62500000  0.75000000
   0.12500000  0.12500000  0.25000000
   0.75000000  0.75000000  0.50000000
   0.37500000  0.62500000  0.25000000
   0.25000000  0.75000000  0.50000000
   0.00000000  0.00000000  0.50000000
   0.37500000  0.12500000  0.75000000
   0.87500000  0.37500000  0.75000000
   0.75000000  0.50000000  0.50000000
   0.87500000  0.87500000  0.75000000
   0.25000000  0.25000000  0.50000000
   0.50000000  0.00000000  0.50000000
   0.12500000  0.37500000  0.75000000
   0.62500000  0.37500000  0.25000000
   0.50000000  0.50000000  0.50000000
   0.00000000  0.00000000  0.00000000
   0.00000000  0.75000000  0.50000000
   0.50000000  0.00000000  0.00000000
   0.62500000  0.12500000  0.25000000
   0.00000000  0.75000000  0.00000000
   0.62500000  0.87500000  0.75000000
   0.50000000  0.75000000  0.50000000
   0.25000000  0.50000000  0.50000000
   0.12500000  0.62500000  0.25000000
   0.75000000  0.25000000  0.50000000
   0.62500000  0.12500000  0.75000000
   0.75000000  0.00000000  0.00000000
   0.75000000  0.00000000  0.50000000
   0.50000000  0.25000000  0.00000000
   0.87500000  0.12500000  0.25000000
   0.87500000  0.62500000  0.25000000
   0.25000000  0.75000000  0.00000000
   0.25000000  0.00000000  0.00000000
   0.12500000  0.12500000  0.75000000
   0.00000000  0.25000000  0.00000000
   0.37500000  0.37500000  0.25000000
   0.87500000  0.37500000  0.25000000
   0.62500000  0.37500000  0.75000000
   0.50000000  0.50000000  0.00000000
 
 position of ions in cartesian coordinates  (Angst):
   4.93500000  1.64500000  1.64500000
   6.58000000  3.29000000  3.29000000
   0.00000000  3.29000000  3.29000000
   3.29000000  0.00000000  3.29000000
   1.64500000  4.93500000  1.64500000
   8.22500000  8.22500000  4.93500000
   0.00000000  6.58000000  0.00000000
   4.93500000 11.51500000  4.93500000
   1.64500000  8.22500000  4.93500000
   6.58000000  9.87000000  0.00000000
   0.00000000  6.58000000  3.29000000
   1.64500000 11.51500000  1.64500000
   9.87000000  9.87000000  0.00000000
   3.29000000  6.58000000  0.00000000
   3.29000000  3.29000000  0.00000000
   4.93500000  4.93500000  4.93500000
   8.22500000 11.51500000  1.64500000
   9.87000000  6.58000000  0.00000000
   9.87000000  3.29000000  0.00000000
  11.51500000  1.64500000  4.93500000
   4.93500000  8.22500000  4.93500000
   1.64500000 11.51500000  4.93500000
  11.51500000 11.51500000  1.64500000
   4.93500000 11.51500000  1.64500000
   8.22500000  8.22500000  1.64500000
  11.51500000  8.22500000  4.93500000
   1.64500000  1.64500000  1.64500000
   9.87000000  9.87000000  3.29000000
   4.93500000  8.22500000  1.64500000
   3.29000000  9.87000000  3.29000000
   0.00000000  0.00000000  3.29000000
   4.93500000  1.64500000  4.93500000
  11.51500000  4.93500000  4.93500000
   9.87000000  6.58000000  3.29000000
  11.51500000 11.51500000  4.93500000
   3.29000000  3.29000000  3.29000000
   6.58000000  0.00000000  3.29000000
   1.64500000  4.93500000  4.93500000
   8.22500000  4.93500000  1.64500000
   6.58000000  6.58000000  3.29000000
   0.00000000  0.00000000  0.00000000
   0.00000000  9.87000000  3.29000000
   6.58000000  0.00000000  0.00000000
   8.22500000  1.64500000  1.64500000
   0.00000000  9.87000000  0.00000000
   8.22500000 11.51500000  4.93500000
   6.58000000  9.87000000  3.29000000
   3.29000000  6.58000000  3.29000000
   1.64500000  8.22500000  1.64500000
   9.87000000  3.29000000  3.29000000
   8.22500000  1.64500000  4.93500000
   9.87000000  0.00000000  0.00000000
   9.87000000  0.00000000  3.29000000
   6.58000000  3.29000000  0.00000000
  11.51500000  1.64500000  1.64500000
  11.51500000  8.22500000  1.64500000
   3.29000000  9.87000000  0.00000000
   3.29000000  0.00000000  0.00000000
   1.64500000  1.64500000  4.93500000
   0.00000000  3.29000000  0.00000000
   4.93500000  4.93500000  1.64500000
  11.51500000  4.93500000  1.64500000
   8.22500000  4.93500000  4.93500000
   6.58000000  6.58000000  0.00000000
 


--------------------------------------------------------------------------------------------------------


 k-point   1 :   0.0000 0.0000 0.0000  plane waves:   10181
 k-point   2 :   0.3333 0.0000 0.0000  plane waves:   10238
 k-point   3 :   0.0000 0.3333 0.0000  plane waves:   10238
 k-point   4 :   0.3333 0.3333 0.0000  plane waves:   10248
 k-point   5 :  -0.3333 0.3333 0.0000  plane waves:   10248
 k-point   6 :   0.0000 0.0000 0.2000  plane waves:   10193
 k-point   7 :   0.3333 0.0000 0.2000  plane waves:   10246
 k-point   8 :   0.0000 0.3333 0.2000  plane waves:   10246
 k-point   9 :  -0.3333 0.0000 0.2000  plane waves:   10246
 k-point  10 :   0.0000-0.3333 0.2000  plane waves:   10246
 k-point  11 :   0.3333 0.3333 0.2000  plane waves:   10238
 k-point  12 :  -0.3333 0.3333 0.2000  plane waves:   10238
 k-point  13 :  -0.3333-0.3333 0.2000  plane waves:   10238
 k-point  14 :   0.3333-0.3333 0.2000  plane waves:   10238
 k-point  15 :   0.0000 0.0000 0.4000  plane waves:   10201
 k-point  16 :   0.3333 0.0000 0.4000  plane waves:   10223
 k-point  17 :   0.0000 0.3333 0.4000  plane waves:   10223
 k-point  18 :  -0.3333 0.0000 0.4000  plane waves:   10223
 k-point  19 :   0.0000-0.3333 0.4000  plane waves:   10223
 k-point  20 :   0.3333 0.3333 0.4000  plane waves:   10193
 k-point  21 :  -0.3333 0.3333 0.4000  plane waves:   10193
 k-point  22 :  -0.3333-0.3333 0.4000  plane waves:   10193
 k-point  23 :   0.3333-0.3333 0.4000  plane waves:   10193

 maximum and minimum number of plane-waves per node :       880      830

 maximum number of plane-waves:     10248
 maximum index in each direction: 
   IXMAX=   17   IYMAX=   17   IZMAX=    8
   IXMIN=  -17   IYMIN=  -17   IZMIN=   -8


 parallel 3D FFT for wavefunctions:
    minimum data exchange during FFTs selected (reduces bandwidth)
 parallel 3D FFT for charge:
    minimum data exchange during FFTs selected (reduces bandwidth)


 total amount of memory used by VASP MPI-rank0    91346. kBytes
=======================================================================

   base      :      30000. kBytes
   nonl-proj :      12216. kBytes
   fftplans  :       1504. kBytes
   grid      :       2835. kBytes
   one-center:         93. kBytes
   wavefun   :      44698. kBytes
 
     INWAV:  cpu time      0.0000: real time      0.0000
 Broyden mixing: mesh for mixing (old mesh)
   NGX = 33   NGY = 33   NGZ = 17
  (NGX  =140   NGY  =140   NGZ  = 72)
  gives a total of  18513 points

 initial charge density was supplied:
 charge density of overlapping atoms calculated
 number of electron     835.0000000 magnetization 
 keeping initial charge density in first step


--------------------------------------------------------------------------------------------------------


 Maximum index for augmentation-charges          505 (set IRDMAX)


--------------------------------------------------------------------------------------------------------


 First call to EWALD:  gamma=   0.170
 Maximum number of real-space cells 2x 2x 4
 Maximum number of reciprocal cells 3x 3x 2

    FEWALD:  cpu time      0.0021: real time      0.0021


--------------------------------------- Iteration      1(   1)  ---------------------------------------


    POTLOK:  cpu time      0.2449: real time      0.3566
    SETDIJ:  cpu time      0.1731: real time      0.1740
     EDDAV:  cpu time     29.3610: real time     29.5029
       DOS:  cpu time      0.0070: real time      0.0070
    --------------------------------------------
      LOOP:  cpu time     29.7859: real time     30.0405

 eigenvalue-minimisations  : 23496
 total energy-change (2. order) : 0.8227424E+04  (-0.3227310E+05)
 number of electron     835.0000000 magnetization 
 augmentation part      835.0000000 magnetization 

 Free energy of the ion-electron system (eV)
  ---------------------------------------------------
  alpha Z        PSCENC =      7424.95405648
  Ewald energy   TEWEN  =    -86979.63948257
  -Hartree energ DENC   =    -16297.62503276
  -exchange      EXHF   =         0.00000000
  -V(xc)+E(xc)   XCENC  =      3262.74709028
  PAW double counting   =     80761.54315431   -79514.35623065
  entropy T*S    EENTRO =        -0.00216355
  eigenvalues    EBANDS =     -2539.23519506
  atomic energy  EATOM  =    102109.03755231
  Solvation  Ediel_sol  =         0.00000000
  ---------------------------------------------------
  free energy    TOTEN  =      8227.42374879 eV

  energy without entropy =     8227.42591234  energy(sigma->0) =     8227.42483057


--------------------------------------------------------------------------------------------------------




--------------------------------------- Iteration      1(   2)  ---------------------------------------


     EDDAV:  cpu time     30.3332: real time     30.4646
       DOS:  cpu time      0.0074: real time      0.0074
    --------------------------------------------
      LOOP:  cpu time     30.3406: real time     30.4720

 eigenvalue-minimisations  : 23208
 total energy-change (2. order) :-0.8204519E+04  (-0.7958835E+04)
 number of electron     835.0000000 magnetization 
 augmentation part      835.0000000 magnetization 

 Free energy of the ion-electron system (eV)
  ---------------------------------------------------
  alpha Z        PSCENC =      7424.95405648
  Ewald energy   TEWEN  =    -86979.63948257
  -Hartree energ DENC   =    -16297.62503276
  -exchange      EXHF   =         0.00000000
  -V(xc)+E(xc)   XCENC  =      3262.74709028
  PAW double counting   =     80761.54315431   -79514.35623065
  entropy T*S    EENTRO =        -0.00793154
  eigenvalues    EBANDS =    -10743.74877737
  atomic energy  EATOM  =    102109.03755231
  Solvation  Ediel_sol  =         0.00000000
  ---------------------------------------------------
  free energy    TOTEN  =        22.90439848 eV

  energy without entropy =       22.91233003  energy(sigma->0) =       22.90836426


--------------------------------------------------------------------------------------------------------




--------------------------------------- Iteration      1(   3)  ---------------------------------------


     EDDAV:  cpu time     32.3126: real time     32.4550
       DOS:  cpu time      0.0071: real time      0.0072
    --------------------------------------------
      LOOP:  cpu time     32.3197: real time     32.4622

 eigenvalue-minimisations  : 33936
 total energy-change (2. order) :-0.7485750E+03  (-0.7015088E+03)
 number of electron     835.0000000 magnetization 
 augmentation part      835.0000000 magnetization 

 Free energy of the ion-electron system (eV)
  ---------------------------------------------------
  alpha Z        PSCENC =      7424.95405648
  Ewald energy   TEWEN  =    -86979.63948257
  -Hartree energ DENC   =    -16297.62503276
  -exchange      EXHF   =         0.00000000
  -V(xc)+E(xc)   XCENC  =      3262.74709028
  PAW double counting   =     80761.54315431   -79514.35623065
  entropy T*S    EENTRO =        -0.00652919
  eigenvalues    EBANDS =    -11492.32519615
  atomic energy  EATOM  =    102109.03755231
  Solvation  Ediel_sol  =         0.00000000
  ---------------------------------------------------
  free energy    TOTEN  =      -725.67061793 eV

  energy without entropy =     -725.66408875  energy(sigma->0) =     -725.66735334


--------------------------------------------------------------------------------------------------------




--------------------------------------- Iteration      1(   4)  ---------------------------------------


     EDDAV:  cpu time     32.0286: real time     32.1628
       DOS:  cpu time      0.0069: real time      0.0069
    --------------------------------------------
      LOOP:  cpu time     32.0355: real time     32.1697

 eigenvalue-minimisations  : 33840
 total energy-change (2. order) :-0.5627934E+02  (-0.5425179E+02)
 number of electron     835.0000000 magnetization 
 augmentation part      835.0000000 magnetization 

 Free energy of the ion-electron system (eV)
  ---------------------------------------------------
  alpha Z        PSCENC =      7424.95405648
  Ewald energy   TEWEN  =    -86979.63948257
  -Hartree energ DENC   =    -16297.62503276
  -exchange      EXHF   =         0.00000000
  -V(xc)+E(xc)   XCENC  =      3262.74709028
  PAW double counting   =     80761.54315431   -79514.35623065
  entropy T*S    EENTRO =        -0.01214332
  eigenvalues    EBANDS =    -11548.59892162
  atomic energy  EATOM  =    102109.03755231
  Solvation  Ediel_sol  =         0.00000000
  ---------------------------------------------------
  free energy    TOTEN  =      -781.94995753 eV

  energy without entropy =     -781.93781422  energy(sigma->0) =     -781.94388587


--------------------------------------------------------------------------------------------------------




--------------------------------------- Iteration      1(   5)  ---------------------------------------


     EDDAV:  cpu time     36.0212: real time     36.1734
       DOS:  cpu time      0.0071: real time      0.0071
    CHARGE:  cpu time      0.4228: real time      0.4243
    MIXING:  cpu time      0.0004: real time      0.0004
    --------------------------------------------
      LOOP:  cpu time     36.4516: real time     36.6053

 eigenvalue-minimisations  : 38896
 total energy-change (2. order) :-0.3483504E+01  (-0.3449384E+01)
 number of electron     834.9999675 magnetization 
 augmentation part      181.0600588 magnetization 

 Broyden mixing:
  rms(total) = 0.10936E+02    rms(broyden)= 0.10934E+02
  rms(prec ) = 0.11267E+02
  weight for this iteration     100.00

 Free energy of the ion-electron system (eV)
  ---------------------------------------------------
  alpha Z        PSCENC =      7424.95405648
  Ewald energy   TEWEN  =    -86979.63948257
  -Hartree energ DENC   =    -16297.62503276
  -exchange      EXHF   =         0.00000000
  -V(xc)+E(xc)   XCENC  =      3262.74709028
  PAW double counting   =     80761.54315431   -79514.35623065
  entropy T*S    EENTRO =        -0.01253820
  eigenvalues    EBANDS =    -11552.08203106
  atomic energy  EATOM  =    102109.03755231
  Solvation  Ediel_sol  =         0.00000000
  ---------------------------------------------------
  free energy    TOTEN  =      -785.43346186 eV

  energy without entropy =     -785.42092366  energy(sigma->0) =     -785.42719276


--------------------------------------------------------------------------------------------------------




--------------------------------------- Iteration      1(   6)  ---------------------------------------


    POTLOK:  cpu time      0.0137: real time      0.0139
    SETDIJ:  cpu time      0.0040: real time      0.0040
     EDDAV:  cpu time     29.9236: real time     30.0568
       DOS:  cpu time      0.0071: real time      0.0071
    CHARGE:  cpu time      0.4265: real time      0.4280
    MIXING:  cpu time      0.0005: real time      0.0017
    --------------------------------------------
      LOOP:  cpu time     30.3755: real time     30.5116

 eigenvalue-minimisations  : 28752
 total energy-change (2. order) : 0.2599203E+02  (-0.9051232E+01)
 number of electron     834.9999670 magnetization 
 augmentation part      187.5025569 magnetization 

 Broyden mixing:
  rms(total) = 0.42895E+01    rms(broyden)= 0.42887E+01
  rms(prec ) = 0.55009E+01
  weight for this iteration     100.00

 eigenvalues of (default mixing * dielectric matrix)
  average eigenvalue GAMMA=   1.4876
  1.4876

 Free energy of the ion-electron system (eV)
  ---------------------------------------------------
  alpha Z        PSCENC =      7424.95405648
  Ewald energy   TEWEN  =    -86979.63948257
  -Hartree energ DENC   =    -15392.49134931
  -exchange      EXHF   =         0.00000000
  -V(xc)+E(xc)   XCENC  =      3218.79321375
  PAW double counting   =     96533.04124398   -95401.84045735
  entropy T*S    EENTRO =        -0.00991518
  eigenvalues    EBANDS =    -12271.28629015
  atomic energy  EATOM  =    102109.03755231
  Solvation  Ediel_sol  =         0.00000000
  ---------------------------------------------------
  free energy    TOTEN  =      -759.44142803 eV

  energy without entropy =     -759.43151285  energy(sigma->0) =     -759.43647044


--------------------------------------------------------------------------------------------------------




--------------------------------------- Iteration      1(   7)  ---------------------------------------


    POTLOK:  cpu time      0.0191: real time      0.0260
    SETDIJ:  cpu time      0.0040: real time      0.0040
     EDDAV:  cpu time     61.5526: real time     61.8744
       DOS:  cpu time      0.0069: real time      0.0070
    CHARGE:  cpu time      0.4153: real time      0.4165
    MIXING:  cpu time      0.0007: real time      0.0007
    --------------------------------------------
      LOOP:  cpu time     61.9987: real time     62.3286

 eigenvalue-minimisations  : 33040
 total energy-change (2. order) :-0.4293927E+02  (-0.1443284E+02)
 number of electron     834.9999656 magnetization 
 augmentation part      187.6206358 magnetization 

 Broyden mixing:
  rms(total) = 0.36605E+01    rms(broyden)= 0.36572E+01
  rms(prec ) = 0.10964E+02
  weight for this iteration     100.00

 eigenvalues of (default mixing * dielectric matrix)
  average eigenvalue GAMMA=   0.9816
  1.5925  0.3706

 Free energy of the ion-electron system (eV)
  ---------------------------------------------------
  alpha Z        PSCENC =      7424.95405648
  Ewald energy   TEWEN  =    -86979.63948257
  -Hartree energ DENC   =    -15152.50931144
  -exchange      EXHF   =         0.00000000
  -V(xc)+E(xc)   XCENC  =      3203.99101730
  PAW double counting   =    105713.70181833  -104621.69884173
  entropy T*S    EENTRO =        -0.01420271
  eigenvalues    EBANDS =    -12500.20330652
  atomic energy  EATOM  =    102109.03755231
  Solvation  Ediel_sol  =         0.00000000
  ---------------------------------------------------
  free energy    TOTEN  =      -802.38070053 eV

  energy without entropy =     -802.36649783  energy(sigma->0) =     -802.37359918


--------------------------------------------------------------------------------------------------------




--------------------------------------- Iteration      1(   8)  ---------------------------------------


    POTLOK:  cpu time      0.0197: real time      0.0264
    SETDIJ:  cpu time      0.0039: real time      0.0040
     EDDAV:  cpu time     24.4722: real time     24.5683
       DOS:  cpu time      0.0066: real time      0.0066
    CHARGE:  cpu time      0.4206: real time      0.4220
    MIXING:  cpu time      0.0005: real time      0.0005
    --------------------------------------------
      LOOP:  cpu time     24.9235: real time     25.0277

 eigenvalue-minimisations  : 33768
 total energy-change (2. order) : 0.5601523E+02  (-0.1296730E+02)
 number of electron     834.9999667 magnetization 
 augmentation part      188.9933506 magnetization 

 Broyden mixing:
  rms(total) = 0.12482E+01    rms(broyden)= 0.12429E+01
  rms(prec ) = 0.20490E+01
  weight for this iteration     100.00

 eigenvalues of (default mixing * dielectric matrix)
  average eigenvalue GAMMA=   0.8881
  1.7062  0.6883  0.2696

 Free energy of the ion-electron system (eV)
  ---------------------------------------------------
  alpha Z        PSCENC =      7424.95405648
  Ewald energy   TEWEN  =    -86979.63948257
  -Hartree energ DENC   =    -14978.23123270
  -exchange      EXHF   =         0.00000000
  -V(xc)+E(xc)   XCENC  =      3196.54705887
  PAW double counting   =    109909.50702278  -108841.89601982
  entropy T*S    EENTRO =        -0.01025275
  eigenvalues    EBANDS =    -12586.63417075
  atomic energy  EATOM  =    102109.03755231
  Solvation  Ediel_sol  =         0.00000000
  ---------------------------------------------------
  free energy    TOTEN  =      -746.36546816 eV

  energy without entropy =     -746.35521541  energy(sigma->0) =     -746.36034178


--------------------------------------------------------------------------------------------------------




--------------------------------------- Iteration      1(   9)  ---------------------------------------


    POTLOK:  cpu time      0.0142: real time      0.0144
    SETDIJ:  cpu time      0.0059: real time      0.0059
     EDDAV:  cpu time     24.6564: real time     24.7594
       DOS:  cpu time      0.0072: real time      0.0072
    CHARGE:  cpu time      0.4143: real time      0.4156
    MIXING:  cpu time      0.0005: real time      0.0006
    --------------------------------------------
[...]
 -0.007  -0.023  -0.002   0.012   0.002   0.006  -0.024  -0.005   3.402  -0.038   0.060   0.045   0.006  -1.436   0.023  -0.025
  0.000   0.012   0.008   0.001   0.011  -0.007  -0.003  -0.021  -0.038   3.444  -0.002  -0.027  -0.002   0.023  -1.455   0.001
  0.002   0.033  -0.001  -0.003   0.001   0.001   0.009  -0.000   0.060  -0.002   2.754  -0.002   0.005  -0.024   0.001  -1.262
 -0.000  -0.011   0.010  -0.003   0.007  -0.017   0.006  -0.006   0.045  -0.027  -0.002   3.424  -0.005  -0.025   0.009   0.001
 -0.001  -0.001  -0.001  -0.000  -0.002   0.002   0.000   0.000   0.006  -0.002   0.005  -0.005   2.711  -0.002   0.001  -0.001
  0.006   0.011   0.001  -0.007  -0.001  -0.003   0.013   0.003  -1.436   0.023  -0.024  -0.025  -0.002   0.618  -0.013   0.010
 -0.001  -0.009  -0.005  -0.001  -0.006   0.005   0.003   0.012   0.023  -1.455   0.001   0.009   0.001  -0.013   0.628  -0.000
 -0.002  -0.013   0.001   0.001  -0.001  -0.000  -0.003   0.001  -0.025   0.001  -1.262   0.001  -0.001   0.010  -0.000   0.585
  0.000   0.009  -0.006   0.001  -0.004   0.010  -0.004   0.004  -0.025   0.010   0.001  -1.448   0.002   0.013  -0.004  -0.001
  0.001  -0.001   0.001   0.000   0.001  -0.000   0.000  -0.001  -0.002   0.001  -0.001   0.003  -1.242   0.001  -0.001   0.000


------------------------ aborting loop because EDIFF is reached ----------------------------------------


    CHARGE:  cpu time      0.4110: real time      0.4126
    FORLOC:  cpu time      0.0046: real time      0.0046
    FORNL :  cpu time     15.3067: real time     15.3908
    STRESS:  cpu time     14.5543: real time     14.6285
    FORCOR:  cpu time      0.0183: real time      0.0183
    FORHAR:  cpu time      0.0067: real time      0.0067
    MIXING:  cpu time      0.0012: real time      0.0012
    OFIELD:  cpu time      0.0000: real time      0.0000

  FORCE on cell =-STRESS in cart. coord.  units (eV):
  Direction    XX          YY          ZZ          XY          YZ          ZX
  --------------------------------------------------------------------------------------
  Alpha Z  7424.95406  7424.95406  7424.95406
  Ewald  -29055.81943-28976.86568-28947.39974   -44.95015    16.55445    -3.20190
  Hartree  4919.54361  4994.68517  5023.87487   -41.36379    14.95641    -1.02979
  E(xc)   -3835.88026 -3835.88810 -3835.90150     0.07235    -0.01624    -0.01291
  Local    6681.87041  6525.05159  6465.50555    83.52381   -30.59726     4.17858
  n-local -1264.41204 -1267.25096 -1266.47509    -0.04685     0.05475    -0.06115
  augment  2415.08682  2415.96410  2415.84408     0.52366    -0.16794    -0.07261
  Kinetic 12610.17665 12617.01490 12618.23778     1.39052    -0.37509     0.84415
  Fock        0.00000     0.00000     0.00000     0.00000     0.00000     0.00000
  -------------------------------------------------------------------------------------
  Total    -104.48019  -102.33493  -101.35999    -0.85047     0.40909     0.64436
  in kB    -146.89495  -143.87880  -142.50807    -1.19573     0.57516     0.90594
  external pressure =     -144.43 kB  Pullay stress =        0.00 kB


 VOLUME and BASIS-vectors are now :
 -----------------------------------------------------------------------------
  energy-cutoff  :      250.00
  volume of cell :     1139.56
      direct lattice vectors                 reciprocal lattice vectors
    13.160000000  0.000000000  0.000000000     0.075987842  0.000000000  0.000000000
     0.000000000 13.160000000  0.000000000     0.000000000  0.075987842  0.000000000
     0.000000000  0.000000000  6.580000000     0.000000000  0.000000000  0.151975684

  length of vectors
    13.160000000 13.160000000  6.580000000     0.075987842  0.075987842  0.151975684


 FORCES acting on ions
    electron-ion (+dipol)            ewald-force                    non-local-force                 convergence-correction
 -----------------------------------------------------------------------------------------------
   0.158E+02 0.543E+01 -.401E+02   -.157E+02 -.535E+01 0.396E+02   -.613E-01 0.644E-01 0.139E+00   0.816E-04 0.566E-04 0.520E-04
   0.999E+02 -.342E+01 -.200E+01   -.997E+02 0.347E+01 0.196E+01   0.643E-01 -.341E-01 -.148E-01   0.395E-03 -.101E-03 -.306E-04
   -.880E+02 -.488E+02 -.478E+02   0.880E+02 0.481E+02 0.475E+02   -.132E+00 0.249E-02 0.213E-01   -.243E-03 -.215E-03 0.499E-04
   -.322E+02 -.328E+02 -.203E+02   0.319E+02 0.328E+02 0.203E+02   0.484E-01 -.932E-01 -.127E+00   -.191E-03 0.237E-03 0.227E-04
   -.486E+02 0.197E+02 -.245E+02   0.486E+02 -.196E+02 0.244E+02   -.629E-02 0.115E-01 -.352E-01   -.190E-03 -.302E-03 0.457E-04
   0.236E+02 0.605E+02 0.400E+02   -.236E+02 -.604E+02 -.399E+02   0.919E-01 0.513E-01 0.726E-01   0.186E-03 -.641E-04 -.469E-05
   -.540E+02 0.537E+02 0.555E+02   0.538E+02 -.532E+02 -.549E+02   -.177E+00 -.414E-01 -.134E+00   -.338E-03 -.195E-03 -.109E-03
   0.101E+02 -.651E+02 0.314E+02   -.103E+02 0.653E+02 -.311E+02   0.558E-01 -.267E+00 -.640E-01   0.168E-03 0.187E-03 -.428E-04
   -.907E+01 0.649E+01 0.501E+02   0.937E+01 -.660E+01 -.498E+02   -.102E+00 0.632E-01 -.129E-02   -.278E-03 -.377E-04 -.923E-04
   0.645E+02 0.464E+01 -.744E+01   -.640E+02 -.415E+01 0.758E+01   -.314E+00 -.294E+00 0.126E-01   0.404E-03 0.391E-05 0.183E-04
   -.321E+02 0.391E+02 -.555E+02   0.313E+02 -.386E+02 0.549E+02   0.368E+00 0.471E-01 0.148E+00   -.316E-03 -.156E-03 0.107E-03
   0.217E+02 -.148E+02 -.661E+02   -.214E+02 0.145E+02 0.653E+02   0.126E-01 0.132E+00 0.213E+00   -.159E-03 0.362E-03 0.644E-04
   -.267E+02 -.390E+01 0.370E+02   0.265E+02 0.397E+01 -.365E+02   0.210E+00 -.357E-01 -.254E-01   -.642E-04 0.486E-04 -.169E-03
   0.119E+02 0.345E+02 0.110E+02   -.119E+02 -.345E+02 -.108E+02   0.253E+00 0.264E+00 -.124E+00   -.117E-04 -.224E-03 0.906E-04
   -.151E+02 -.793E+01 0.460E+02   0.149E+02 0.787E+01 -.457E+02   -.117E-01 -.288E+00 0.445E-01   -.170E-03 -.134E-03 -.911E-05
   0.575E+02 0.427E+02 0.497E+02   -.575E+02 -.429E+02 -.495E+02   0.164E+00 0.228E+00 0.870E-02   0.182E-03 -.167E-03 -.124E-04
   0.915E+02 -.328E+02 0.135E+02   -.912E+02 0.330E+02 -.133E+02   0.323E-01 -.708E-01 0.594E-02   0.223E-03 0.230E-03 -.132E-04
   0.471E+01 0.411E+02 0.122E+02   -.421E+01 -.408E+02 -.120E+02   -.376E+00 -.187E+00 -.405E-01   -.867E-04 -.807E-04 -.106E-03
   0.338E+01 -.790E+02 0.414E+01   -.346E+01 0.787E+02 -.402E+01   0.827E-01 -.616E-01 -.743E-01   0.238E-04 -.266E-03 -.233E-04
   -.117E+03 0.416E+02 0.146E+02   0.116E+03 -.416E+02 -.145E+02   -.864E-01 0.120E+00 0.323E-01   -.201E-03 -.355E-04 -.619E-06
   0.294E+02 0.184E+02 0.441E+02   -.294E+02 -.184E+02 -.441E+02   -.111E-02 -.814E-02 0.112E+00   0.318E-03 -.641E-04 -.906E-05
   0.405E+02 -.143E+02 0.708E+02   -.404E+02 0.138E+02 -.704E+02   0.262E-01 0.359E+00 0.432E-01   -.192E-03 0.336E-03 -.740E-04
   -.133E+03 -.118E+02 -.237E+02   0.133E+03 0.119E+02 0.236E+02   -.513E+00 -.142E+00 0.312E-01   -.239E-03 0.358E-03 0.216E-04
   0.180E+02 -.333E+02 -.336E+02   -.185E+02 0.330E+02 0.335E+02   0.438E+00 -.129E+00 -.540E-02   0.155E-03 0.165E-03 0.486E-04
   0.536E+02 0.882E+02 -.430E+02   -.541E+02 -.886E+02 0.430E+02   0.487E+00 0.411E+00 -.441E-01   0.847E-04 -.111E-03 0.100E-04
   -.448E+02 0.223E+02 0.526E+02   0.448E+02 -.221E+02 -.525E+02   -.831E-01 -.164E-01 0.741E-01   -.256E-03 -.720E-04 -.989E-04
   -.399E+02 0.108E+02 -.434E+02   0.401E+02 -.110E+02 0.430E+02   -.310E+00 0.105E+00 0.232E-01   -.229E-03 0.603E-04 0.377E-04
   -.562E+02 0.229E+02 -.395E+02   0.566E+02 -.231E+02 0.394E+02   -.358E+00 0.328E+00 -.877E-01   -.384E-04 0.418E-04 0.173E-03
   0.191E+02 0.144E+02 -.348E+02   -.192E+02 -.145E+02 0.347E+02   -.159E-01 -.660E-01 0.310E-01   0.224E-03 -.103E-03 0.146E-04
   0.109E+02 0.239E+01 0.124E+02   -.113E+02 -.208E+01 -.124E+02   0.289E+00 -.298E+00 0.510E-01   -.752E-04 0.115E-03 -.268E-04
   -.423E+02 0.485E+02 -.187E+02   0.425E+02 -.481E+02 0.187E+02   -.389E+00 -.735E-01 -.715E-01   -.192E-03 0.232E-03 0.613E-04
   0.172E+02 0.455E+01 0.339E+02   -.172E+02 -.453E+01 -.335E+02   -.549E-01 -.284E-01 0.641E-01   0.640E-04 0.274E-04 -.306E-04
   -.454E+02 -.429E+02 0.346E+02   0.452E+02 0.423E+02 -.341E+02   -.201E+00 0.824E-01 -.127E-03   -.122E-03 -.144E-03 -.523E-04
   0.183E+02 0.386E+02 -.970E+01   -.181E+02 -.383E+02 0.942E+01   -.117E+00 -.746E-02 0.448E-01   -.282E-04 -.569E-04 0.867E-04
   -.990E+02 -.771E+01 0.186E+02   0.984E+02 0.776E+01 -.185E+02   -.145E+00 -.814E-01 -.560E-01   -.197E-03 0.247E-03 -.106E-04
   -.156E+02 0.215E+01 -.390E+02   0.153E+02 -.268E+01 0.387E+02   -.139E+00 0.359E+00 -.426E-01   -.129E-03 -.116E-03 0.146E-04
   0.995E+02 -.405E+02 -.234E+02   -.991E+02 0.406E+02 0.232E+02   0.426E+00 -.554E+00 -.285E-01   0.323E-03 0.153E-03 0.256E-04
   -.275E+02 0.155E+02 0.207E+02   0.275E+02 -.152E+02 -.207E+02   -.878E-01 -.283E+00 -.126E-01   -.155E-03 -.228E-03 -.344E-04
   0.379E+02 -.478E+02 -.560E+02   -.376E+02 0.475E+02 0.553E+02   0.664E-02 -.382E-01 -.895E-02   0.128E-03 -.956E-04 0.289E-04
   0.134E+02 0.200E+02 0.280E+02   -.131E+02 -.203E+02 -.279E+02   -.233E+00 0.474E+00 -.249E-02   0.336E-03 -.106E-03 -.724E-04
   -.306E+02 0.362E+02 0.188E+02   0.307E+02 -.357E+02 -.187E+02   0.121E-01 -.327E-01 -.197E-01   -.250E-03 0.248E-03 -.681E-04
   -.431E+02 -.403E+02 -.253E+02   0.431E+02 0.400E+02 0.250E+02   -.211E+00 0.116E+00 0.579E-01   -.278E-03 0.489E-04 0.124E-03
   0.879E+02 -.288E+02 0.234E+02   -.872E+02 0.283E+02 -.232E+02   -.710E-01 0.218E+00 0.725E-01   0.379E-03 0.159E-03 -.256E-04
   0.135E+03 0.525E+01 -.142E+02   -.135E+03 -.475E+01 0.141E+02   0.615E+00 -.259E+00 -.589E-01   0.372E-03 0.272E-04 -.129E-05
   -.271E+02 -.526E+02 0.320E+02   0.266E+02 0.524E+02 -.318E+02   0.234E+00 0.508E-01 -.152E-01   -.302E-03 0.105E-03 -.148E-03
   0.741E+02 -.315E+02 -.134E+02   -.738E+02 0.312E+02 0.133E+02   0.220E+00 0.386E+00 -.169E+00   0.313E-03 0.178E-03 0.636E-05
   0.970E+02 0.297E+02 0.803E+01   -.972E+02 -.296E+02 -.817E+01   0.280E+00 0.183E-01 -.150E-01   0.461E-03 0.345E-04 -.273E-04
   -.590E+01 0.294E+02 -.118E+02   0.605E+01 -.292E+02 0.116E+02   0.185E+00 0.589E-01 0.153E-02   -.983E-04 -.277E-03 -.732E-04
   -.382E+02 -.162E+02 -.538E+02   0.388E+02 0.165E+02 0.537E+02   -.295E+00 0.306E-01 -.546E-01   -.121E-03 -.967E-04 0.102E-03
   0.683E+01 -.106E+03 -.407E+01   -.684E+01 0.106E+03 0.402E+01   0.940E-01 -.476E+00 0.493E-02   0.192E-04 -.256E-03 0.391E-04
   0.145E+03 0.285E+02 0.143E+02   -.145E+03 -.283E+02 -.141E+02   0.431E+00 0.537E-03 0.280E-01   0.379E-03 -.173E-04 -.576E-05
   -.330E+02 0.420E+02 0.315E+02   0.329E+02 -.421E+02 -.314E+02   0.167E-01 0.359E+00 0.566E-01   0.449E-04 0.244E-03 -.968E-04
   -.378E+02 0.344E+02 -.316E+02   0.376E+02 -.342E+02 0.314E+02   -.631E-01 0.548E-01 -.904E-02   0.532E-04 0.239E-03 0.943E-04
   0.949E+02 0.210E+02 0.220E+01   -.949E+02 -.214E+02 -.211E+01   0.528E+00 0.333E+00 -.662E-01   0.330E-03 -.719E-04 0.330E-04
   -.112E+03 0.418E+02 -.147E+02   0.111E+03 -.416E+02 0.145E+02   -.187E+00 0.708E-01 -.113E-01   -.178E-03 0.124E-04 -.121E-04
   -.399E+02 0.223E+02 -.527E+02   0.398E+02 -.221E+02 0.525E+02   0.275E-01 -.295E-01 -.745E-03   -.204E-03 -.118E-03 0.961E-04
   -.135E+02 0.143E+02 -.157E+02   0.137E+02 -.145E+02 0.158E+02   -.325E+00 0.404E+00 -.559E-01   -.656E-04 0.143E-03 0.378E-04
   -.393E+02 -.429E+02 0.219E+02   0.390E+02 0.432E+02 -.219E+02   -.185E+00 -.367E+00 -.240E-01   -.161E-03 0.263E-03 -.376E-04
   -.504E+02 -.123E+02 0.434E+02   0.507E+02 0.126E+02 -.430E+02   -.281E+00 -.242E+00 0.324E-01   -.240E-03 0.397E-04 -.376E-04
   -.822E+02 -.508E+02 0.513E+02   0.822E+02 0.503E+02 -.512E+02   -.412E+00 -.278E+00 0.539E-01   -.196E-03 -.255E-03 -.580E-04
   0.225E+02 0.911E+01 -.534E+02   -.222E+02 -.887E+01 0.533E+02   0.844E-01 0.231E+00 -.423E-01   0.197E-03 -.984E-04 0.174E-04
   -.181E+02 -.520E+02 -.436E+02   0.178E+02 0.518E+02 0.434E+02   -.236E+00 -.415E-01 -.158E+00   -.194E-03 -.268E-03 0.310E-04
   0.305E+02 -.620E+02 0.706E+02   -.305E+02 0.622E+02 -.704E+02   0.177E+00 -.424E+00 0.229E+00   0.226E-03 -.106E-03 -.183E-04
   0.406E+02 0.104E+02 -.355E+02   -.409E+02 -.102E+02 0.355E+02   0.287E+00 -.353E+00 -.452E-01   0.410E-03 -.143E-03 0.980E-04
 -----------------------------------------------------------------------------------------------
   -.677E-01 0.167E+00 0.351E-01   -.171E-12 0.128E-11 0.853E-13   0.676E-01 -.167E+00 -.352E-01   0.868E-04 -.179E-03 0.201E-04
 
 
 POSITION                                       TOTAL-FORCE (eV/Angst)
 -----------------------------------------------------------------------------------
      4.93500      1.64500      1.64500         0.071530      0.149521     -0.370907
      6.58000      3.29000      3.29000         0.270278      0.010800     -0.061156
      0.00000      3.29000      3.29000        -0.136913     -0.729978     -0.249090
      3.29000      0.00000      3.29000        -0.299970     -0.093257     -0.136795
      1.64500      4.93500      1.64500        -0.027524      0.118718     -0.133513
      8.22500      8.22500      4.93500         0.060156      0.126663      0.119308
      0.00000      6.58000      0.00000        -0.401736      0.469921      0.423102
      4.93500     11.51500      4.93500        -0.121263     -0.132837      0.206588
      1.64500      8.22500      4.93500         0.197643     -0.052652      0.284971
      6.58000      9.87000      0.00000         0.207272      0.200908      0.151349
      0.00000      6.58000      3.29000        -0.434374      0.559577     -0.408881
      1.64500     11.51500      1.64500         0.306492     -0.175142     -0.558614
      9.87000      9.87000      0.00000         0.025392      0.040185      0.438732
      3.29000      6.58000      0.00000         0.254074      0.298535      0.135126
      3.29000      3.29000      0.00000        -0.180044     -0.348855      0.330394
      4.93500      4.93500      4.93500         0.148638      0.064520      0.268048
      8.22500     11.51500      1.64500         0.354657      0.139272      0.272249
      9.87000      6.58000      0.00000         0.122013      0.026500      0.179980
      9.87000      3.29000      0.00000         0.003225     -0.426363      0.040438
     11.51500      1.64500      4.93500        -0.490906      0.155819      0.163695
      4.93500      8.22500      4.93500         0.013467     -0.001714      0.032934
      1.64500     11.51500      4.93500         0.099846     -0.149682      0.470644
     11.51500     11.51500      1.64500        -0.422580     -0.070937     -0.041376
      4.93500     11.51500      1.64500        -0.080728     -0.432930     -0.157300
      8.22500      8.22500      1.64500        -0.005280      0.011950     -0.005743
     11.51500      8.22500      4.93500        -0.152660      0.182384      0.173156
      1.64500      1.64500      1.64500        -0.158613     -0.049453     -0.356482
      9.87000      9.87000      3.29000         0.041811      0.108231     -0.262491
      4.93500      8.22500      1.64500        -0.062029     -0.099936     -0.106429
      3.29000      9.87000      3.29000        -0.078907      0.015755      0.050394
      0.00000      0.00000      3.29000        -0.178205      0.377256     -0.054235
      4.93500      1.64500      4.93500        -0.031932     -0.001070      0.494355
     11.51500      4.93500      4.93500        -0.460440     -0.493677      0.513927
      9.87000      6.58000      3.29000         0.077521      0.316951     -0.234922
     11.51500     11.51500      4.93500        -0.731928     -0.024608      0.027217
      3.29000      3.29000      3.29000        -0.399374     -0.178077     -0.299409
      6.58000      0.00000      3.29000         0.864642     -0.465167     -0.277288
      1.64500      4.93500      4.93500        -0.082444      0.038720      0.070269
      8.22500      4.93500      1.64500         0.250651     -0.414685     -0.717326
      6.58000      6.58000      3.29000         0.100357      0.150064      0.085327
      0.00000      0.00000      0.00000         0.100883      0.433522      0.055570
      0.00000      9.87000      3.29000        -0.126382     -0.145730     -0.246850
      6.58000      0.00000      0.00000         0.586511     -0.257995      0.312927
      8.22500      1.64500      1.64500         0.827727      0.238298     -0.198911
      0.00000      9.87000      0.00000        -0.201941     -0.084917      0.238564
      8.22500     11.51500      4.93500         0.454132      0.023810     -0.349763
      6.58000      9.87000      3.29000         0.122646      0.181788     -0.151325
      3.29000      6.58000      3.29000         0.328313      0.224315     -0.226312
      1.64500      8.22500      1.64500         0.237313      0.272274     -0.198160
      9.87000      3.29000      3.29000         0.087984     -0.542134     -0.045717
      8.22500      1.64500      4.93500         0.659973      0.208621      0.195520
      9.87000      0.00000      0.00000        -0.106953      0.315732      0.193610
      9.87000      0.00000      3.29000        -0.248946      0.214650     -0.185964
      6.58000      3.29000      0.00000         0.581185     -0.016361      0.024568
     11.51500      1.64500      1.64500        -0.788552      0.304592     -0.236399
     11.51500      8.22500      1.64500        -0.117963      0.125319     -0.233836
      3.29000      9.87000      0.00000        -0.107744      0.116279      0.012965
      3.29000      0.00000      0.00000        -0.464993     -0.060455     -0.000492
      1.64500      1.64500      4.93500         0.042665      0.093601      0.444054
      0.00000      3.29000      0.00000        -0.384183     -0.759301      0.206137
      4.93500      4.93500      1.64500         0.320745      0.464960     -0.217723
     11.51500      4.93500      1.64500        -0.535781     -0.279693     -0.361849
      8.22500      4.93500      4.93500         0.184104     -0.209912      0.499953
      6.58000      6.58000      0.00000         0.017439     -0.082495     -0.030812
 -----------------------------------------------------------------------------------
    total drift:                               -0.000028     -0.000062     -0.000031


--------------------------------------------------------------------------------------------------------



  FREE ENERGIE OF THE ION-ELECTRON SYSTEM (eV)
  ---------------------------------------------------
  free  energy   TOTEN  =      -746.02889579 eV

  energy  without entropy=     -746.01908449  energy(sigma->0) =     -746.02399014
 


--------------------------------------------------------------------------------------------------------


    POTLOK:  cpu time      0.0156: real time      0.0156


--------------------------------------------------------------------------------------------------------


     LOOP+:  cpu time    847.4558: real time    851.9640
    4ORBIT:  cpu time      0.0000: real time      0.0000

 total amount of memory used by VASP MPI-rank0    91346. kBytes
=======================================================================

   base      :      30000. kBytes
   nonl-proj :      12216. kBytes
   fftplans  :       1504. kBytes
   grid      :       2835. kBytes
   one-center:         93. kBytes
   wavefun   :      44698. kBytes
 
  
  
 General timing and accounting informations for this job:
 ========================================================
  
                  Total CPU time used (sec):      859.246
                            User time (sec):      852.262
                          System time (sec):        6.984
                         Elapsed time (sec):      864.924
  
                   Maximum memory used (kb):      147824.
                   Average memory used (kb):          N/A
  
                          Minor page faults:        11430
                          Major page faults:            0
                 Voluntary context switches:          280
