 vasp.6.3.1 04May22 (build Jul 26 2022 04:02:40) complex                        
  
 executed on             LinuxIFC date 2023.11.30  04:37:45
 running on   48 total cores
 distrk:  each k-point on   48 cores,    1 groups
 distr:  one band on NCORE=  12 cores,    4 groups


--------------------------------------------------------------------------------------------------------


 INCAR:
   ISTART = 0
   NWRITE = 2
   PREC = Accurate
   ENCUT = 250
   GGA = PE
   NSW = 0
   ISIF = 2
   ISYM = 2
   NBLOCK = 1
   KBLOCK = 1
   IBRION = -1
   NELM = 80
   EDIFF = 1E-08
   EDIFFG = -0.01
   ALGO = Normal
   LDIAG = .TRUE.
   LREAL = .FALSE.
   ISMEAR = 0
   SIGMA = 0.02
   ICHARG = 2
   LPLANE = .TRUE.
   NPAR = 4
   LSCALU = .FALSE.
   NSIM = 4
   LWAVE = .FALSE.
   LCHARG = .FALSE.
   ICORELEVEL = 1

 POTCAR:    PAW_PBE Nb_sv 25May2007               
 POTCAR:    PAW_PBE Mo_sv 02Feb2006               
 POTCAR:    PAW_PBE Ta_pv 07Sep2000               
 POTCAR:    PAW_PBE W_sv 04Sep2015                
 POTCAR:    PAW_PBE Nb_sv 25May2007               
   SHA256 =  0e8fc07c9fcd1164cf2ade22d0399fd28f85e91cd773dfa6cf24839a48c95e24 Nb_sv/POTCAR          
   COPYR  = (c) Copyright 25May2007 Georg Kresse                                                    
   COPYR  = This file is part of the software VASP. Any use, copying, and all other rights are regul
   COPYR  = If you do not have a valid VASP license, you may not use, copy or distribute this file. 
   VRHFIN =Nb: 4p5s4d                                                                               
   LEXCH  = PE                                                                                      
   EATOM  =  1555.1913 eV,  114.3033 Ry                                                             
                                                                                                    
   TITEL  = PAW_PBE Nb_sv 25May2007                                                                 
   LULTRA =        F    use ultrasoft PP ?                                                          
   IUNSCR =        1    unscreen: 0-lin 1-nonlin 2-no                                               
   RPACOR =    1.800    partial core radius                                                         
   POMASS =   92.910; ZVAL   =   13.000    mass and valenz                                          
   RCORE  =    2.400    outmost cutoff radius                                                       
   RWIGS  =    2.400; RWIGS  =    1.270    wigner-seitz radius (au A)                               
   ENMAX  =  293.235; ENMIN  =  219.927 eV                                                          
   ICORE  =        3    local potential                                                             
   LCOR   =        T    correct aug charges                                                         
   LPAW   =        T    paw PP                                                                      
   EAUG   =  455.659                                                                                
   DEXC   =    0.000                                                                                
   RMAX   =    2.456    core radius for proj-oper                                                   
   RAUG   =    1.300    factor for augmentation sphere                                              
   RDEP   =    2.451    radius for radial grids                                                     
   RDEPT  =    1.956    core radius for aug-charge                                                  
                                                                                                    
   Atomic configuration                                                                             
   11 entries                                                                                       
     n  l   j            E        occ.                                                              
     1  0  0.50    -18805.2457   2.0000                                                             
     2  0  0.50     -2630.2869   2.0000                                                             
     2  1  1.50     -2348.4046   6.0000                                                             
     3  0  0.50      -438.8757   2.0000                                                             
     3  1  1.50      -346.7588   6.0000                                                             
     3  2  2.50      -196.2560  10.0000                                                             
     4  0  0.50       -58.3859   2.0000                                                             
     5  0  0.50        -3.9816   1.0000                                                             
     4  1  1.50       -34.5141   6.0000                                                             
     4  2  2.50        -3.0408   4.0000                                                             
     4  3  2.50        -1.3606   0.0000                                                             
   Description                                                                                      
     l       E           TYP  RCUT    TYP  RCUT                                                     
     0    -58.3859094     23  2.200                                                                 
     0     -3.9816262     23  2.200                                                                 
     1    -34.5140738     23  2.200                                                                 
     1     13.6058260     23  2.200                                                                 
     2     -3.0408010     23  2.200                                                                 
     2     -0.1283038     23  2.200                                                                 
     3     -1.3605826     23  2.400                                                                 
  local pseudopotential read in
  partial core-charges read in
  partial kinetic energy density read in
  atomic valenz-charges read in
  non local Contribution for L=           0  read in
    real space projection operators read in
  non local Contribution for L=           0  read in
    real space projection operators read in
  non local Contribution for L=           1  read in
    real space projection operators read in
  non local Contribution for L=           1  read in
    real space projection operators read in
  non local Contribution for L=           2  read in
    real space projection operators read in
  non local Contribution for L=           2  read in
    real space projection operators read in
    PAW grid and wavefunctions read in
 
   number of l-projection  operators is LMAX  =           6
   number of lm-projection operators is LMMAX =          18
 
 POTCAR:    PAW_PBE Mo_sv 02Feb2006               
   SHA256 =  2731df97e41766cc617548c5a8267718fdef1f509ac6bafa01e745abea2bdfaa Mo_sv/POTCAR          
   COPYR  = (c) Copyright 02Feb2006 Georg Kresse                                                    
   COPYR  = This file is part of the software VASP. Any use, copying, and all other rights are regul
   COPYR  = If you do not have a valid VASP license, you may not use, copy or distribute this file. 
   VRHFIN =Mo: 4p5s4d                                                                               
   LEXCH  = PE                                                                                      
   EATOM  =  1862.2866 eV,  136.8742 Ry                                                             
                                                                                                    
   TITEL  = PAW_PBE Mo_sv 02Feb2006                                                                 
   LULTRA =        F    use ultrasoft PP ?                                                          
   IUNSCR =        1    unscreen: 0-lin 1-nonlin 2-no                                               
   RPACOR =    2.200    partial core radius                                                         
   POMASS =   95.940; ZVAL   =   14.000    mass and valenz                                          
   RCORE  =    2.500    outmost cutoff radius                                                       
   RWIGS  =    2.750; RWIGS  =    1.455    wigner-seitz radius (au A)                               
   ENMAX  =  242.676; ENMIN  =  182.007 eV                                                          
   ICORE  =        3    local potential                                                             
   LCOR   =        T    correct aug charges                                                         
   LPAW   =        T    paw PP                                                                      
   EAUG   =  446.014                                                                                
   DEXC   =    0.000                                                                                
   RMAX   =    2.563    core radius for proj-oper                                                   
   RAUG   =    1.300    factor for augmentation sphere                                              
   RDEP   =    2.641    radius for radial grids                                                     
   RDEPT  =    2.031    core radius for aug-charge                                                  
                                                                                                    
   Atomic configuration                                                                             
   11 entries                                                                                       
     n  l   j            E        occ.                                                              
     1  0  0.50    -19819.0341   2.0000                                                             
     2  0  0.50     -2799.0127   2.0000                                                             
     2  1  1.50     -2502.0276   6.0000                                                             
     3  0  0.50      -476.4449   2.0000                                                             
     3  1  1.50      -379.1496   6.0000                                                             
     3  2  2.50      -220.9367  10.0000                                                             
     4  0  0.50       -64.3378   2.0000                                                             
     5  0  0.50        -4.0862   1.0000                                                             
     4  1  1.50       -38.4773   6.0000                                                             
     4  2  2.50        -3.7535   5.0000                                                             
     4  3  2.50        -1.3606   0.0000                                                             
   Description                                                                                      
     l       E           TYP  RCUT    TYP  RCUT                                                     
     0    -64.3377829     23  2.100                                                                 
     0     -4.0861640     23  2.400                                                                 
     1    -38.4772993     23  2.100                                                                 
     1     13.6058260     23  2.100                                                                 
     2     -3.7534941     23  2.400                                                                 
     2     -5.1140767     23  2.400                                                                 
     3     -4.0817478     23  2.500                                                                 
  local pseudopotential read in
  partial core-charges read in
  partial kinetic energy density read in
  atomic valenz-charges read in
  non local Contribution for L=           0  read in
    real space projection operators read in
  non local Contribution for L=           0  read in
    real space projection operators read in
  non local Contribution for L=           1  read in
    real space projection operators read in
  non local Contribution for L=           1  read in
    real space projection operators read in
  non local Contribution for L=           2  read in
    real space projection operators read in
  non local Contribution for L=           2  read in
    real space projection operators read in
    PAW grid and wavefunctions read in
 
   number of l-projection  operators is LMAX  =           6
   number of lm-projection operators is LMMAX =          18
 
 POTCAR:    PAW_PBE Ta_pv 07Sep2000               
   SHA256 =  00d0a14a36c127416459414afb8617d9754996fffa60a2465888e660b20a452f Ta_pv/POTCAR          
   COPYR  = (c) Copyright 07Sep2000 Georg Kresse                                                    
   COPYR  = This file is part of the software VASP. Any use, copying, and all other rights are regul
   COPYR  = If you do not have a valid VASP license, you may not use, copy or distribute this file. 
   VRHFIN =Ta:  5p6s5d                                                                              
   LEXCH  = PE                                                                                      
   EATOM  =  1047.1984 eV,   76.9669 Ry                                                             
                                                                                                    
   TITEL  = PAW_PBE Ta_pv 07Sep2000                                                                 
   LULTRA =        F    use ultrasoft PP ?                                                          
   IUNSCR =        1    unscreen: 0-lin 1-nonlin 2-no                                               
   RPACOR =    2.330    partial core radius                                                         
   POMASS =  180.948; ZVAL   =   11.000    mass and valenz                                          
   RCORE  =    2.500    outmost cutoff radius                                                       
   RWIGS  =    2.840; RWIGS  =    1.503    wigner-seitz radius (au A)                               
   ENMAX  =  223.667; ENMIN  =  167.750 eV                                                          
   RCLOC  =    2.205    cutoff for local pot                                                        
   LCOR   =        T    correct aug charges                                                         
   LPAW   =        T    paw PP                                                                      
   EAUG   =  377.421                                                                                
   DEXC   =    0.000                                                                                
   RMAX   =    2.551    core radius for proj-oper                                                   
   RAUG   =    1.300    factor for augmentation sphere                                              
   RDEP   =    2.526    radius for radial grids                                                     
   RDEPT  =    2.132    core radius for aug-charge                                                  
                                                                                                    
   Atomic configuration                                                                             
   15 entries                                                                                       
     n  l   j            E        occ.                                                              
     1  0  0.50    -67341.2801   2.0000                                                             
     2  0  0.50    -11566.9369   2.0000                                                             
     2  1  1.50    -10134.1175   6.0000                                                             
     3  0  0.50     -2648.5614   2.0000                                                             
     3  1  1.50     -2222.6006   6.0000                                                             
     3  2  2.50     -1726.3114  10.0000                                                             
     4  0  0.50      -538.6957   2.0000                                                             
     4  1  1.50      -399.0125   6.0000                                                             
     4  2  2.50      -220.3955  10.0000                                                             
     4  3  3.50       -23.0371  14.0000                                                             
     5  0  0.50       -71.2900   2.0000                                                             
     5  1  1.50       -37.8224   6.0000                                                             
     5  2  2.50        -2.6455   4.0000                                                             
     6  0  0.50        -4.9623   1.0000                                                             
     5  3  2.50        -1.3606   0.0000                                                             
   Description                                                                                      
     l       E           TYP  RCUT    TYP  RCUT                                                     
     1    -37.8224449     23  2.500                                                                 
     1      1.3605826     23  2.500                                                                 
     2     -2.6454718     23  2.500                                                                 
     2     -0.6258570     23  2.500                                                                 
     0     -4.9622674     23  2.500                                                                 
     0      4.7531427     23  2.500                                                                 
  local pseudopotential read in
  partial core-charges read in
  partial kinetic energy density read in
  atomic valenz-charges read in
  non local Contribution for L=           1  read in
    real space projection operators read in
  non local Contribution for L=           1  read in
    real space projection operators read in
  non local Contribution for L=           2  read in
    real space projection operators read in
  non local Contribution for L=           2  read in
    real space projection operators read in
  non local Contribution for L=           0  read in
    real space projection operators read in
  non local Contribution for L=           0  read in
    real space projection operators read in
    PAW grid and wavefunctions read in
 
   number of l-projection  operators is LMAX  =           6
   number of lm-projection operators is LMMAX =          18
 
 POTCAR:    PAW_PBE W_sv 04Sep2015                
   SHA256 =  931c2d770f65867ef30f3db3421922900fc0890ebac5c3e12f63b6a2064023d7 W_sv/POTCAR           
   COPYR  = (c) Copyright 04Sep2015 Georg Kresse                                                    
   COPYR  = This file is part of the software VASP. Any use, copying, and all other rights are regul
   COPYR  = If you do not have a valid VASP license, you may not use, copy or distribute this file. 
   VRHFIN =W : 5p6s5d                                                                               
   LEXCH  = PE                                                                                      
   EATOM  =  1865.5791 eV,  137.1162 Ry                                                             
                                                                                                    
   TITEL  = PAW_PBE W_sv 04Sep2015                                                                  
   LULTRA =        F    use ultrasoft PP ?                                                          
   IUNSCR =        1    unscreen: 0-lin 1-nonlin 2-no                                               
   RPACOR =    2.330    partial core radius                                                         
   POMASS =  183.850; ZVAL   =   14.000    mass and valenz                                          
   RCORE  =    2.500    outmost cutoff radius                                                       
   RWIGS  =    2.750; RWIGS  =    1.455    wigner-seitz radius (au A)                               
   ENMAX  =  223.057; ENMIN  =  167.293 eV                                                          
   ICORE  =        3    local potential                                                             
   LCOR   =        T    correct aug charges                                                         
   LPAW   =        T    paw PP                                                                      
   EAUG   =  373.438                                                                                
   DEXC   =    0.000                                                                                
   RMAX   =    2.565    core radius for proj-oper                                                   
   RAUG   =    1.300    factor for augmentation sphere                                              
   RDEP   =    2.539    radius for radial grids                                                     
   RDEPT  =    2.126    core radius for aug-charge                                                  
                                                                                                    
   Atomic configuration                                                                             
   15 entries                                                                                       
     n  l   j            E        occ.                                                              
     1  0  0.50    -69465.5834   2.0000                                                             
     2  0  0.50    -11986.2640   2.0000                                                             
     2  1  1.50    -10479.8613   6.0000                                                             
     3  0  0.50     -2759.0756   2.0000                                                             
     3  1  1.50     -2313.1855   6.0000                                                             
     3  2  2.50     -1801.1183  10.0000                                                             
     4  0  0.50      -567.6789   2.0000                                                             
     4  1  1.50      -421.4692   6.0000                                                             
     4  2  2.50      -236.3471  10.0000                                                             
     4  3  3.50       -31.2665  14.0000                                                             
     5  0  0.50       -77.1084   2.0000                                                             
     6  0  0.50        -5.1438   1.0000                                                             
     5  1  1.50       -41.3856   6.0000                                                             
     5  2  2.50        -3.3185   5.0000                                                             
     5  3  2.50        -1.3606   0.0000                                                             
   Description                                                                                      
     l       E           TYP  RCUT    TYP  RCUT                                                     
     0    -77.1084470     23  2.100                                                                 
     0     -5.1437956     23  2.300                                                                 
     1    -41.3855615     23  2.500                                                                 
     1     -2.7211652     23  2.500                                                                 
     2     -3.3185025     23  2.500                                                                 
     2     -1.5965151     23  2.500                                                                 
     3     -1.3605826     23  2.500                                                                 
  local pseudopotential read in
  partial core-charges read in
  partial kinetic energy density read in
  kinetic energy density of atom read in
  atomic valenz-charges read in
  non local Contribution for L=           0  read in
    real space projection operators read in
  non local Contribution for L=           0  read in
    real space projection operators read in
  non local Contribution for L=           1  read in
    real space projection operators read in
  non local Contribution for L=           1  read in
    real space projection operators read in
  non local Contribution for L=           2  read in
    real space projection operators read in
  non local Contribution for L=           2  read in
    real space projection operators read in
    PAW grid and wavefunctions read in
 
   number of l-projection  operators is LMAX  =           6
   number of lm-projection operators is LMMAX =          18
 
  PAW_PBE Nb_sv 25May2007               :
 energy of atom  1       EATOM=-1555.1913
 kinetic energy error for atom=    0.2155 (will be added to EATOM!!)
  PAW_PBE Mo_sv 02Feb2006               :
 energy of atom  2       EATOM=-1862.2866
 kinetic energy error for atom=    0.1102 (will be added to EATOM!!)
  PAW_PBE Ta_pv 07Sep2000               :
 energy of atom  3       EATOM=-1047.1984
 kinetic energy error for atom=    0.0394 (will be added to EATOM!!)
  PAW_PBE W_sv 04Sep2015                :
 energy of atom  4       EATOM=-1865.5791
 kinetic energy error for atom=    0.0589 (will be added to EATOM!!)
 
 
 POSCAR: Nb-Mo-Ta-W alloy
  positions in direct lattice
  No initial velocities read in
 exchange correlation table for  LEXCH =        8
   RHO(1)=    0.500       N(1)  =     2000
   RHO(2)=  100.500       N(2)  =     4000
 


--------------------------------------------------------------------------------------------------------


 ion  position               nearest neighbor table
   1  0.750  0.250  0.250-   2 2.85   4 2.85   6 2.85   8 2.85  12 2.85  13 2.85  14 2.85  15 2.85
                            10 3.29  11 3.29  11 3.29  10 3.29
   2  0.000  0.000  0.000-   1 2.85   3 2.85   5 2.85   7 2.85   9 2.85  10 2.85  11 2.85  16 2.85

   3  0.750  0.750  0.750-   2 2.85   4 2.85   6 2.85   8 2.85  12 2.85  13 2.85  14 2.85  15 2.85
                            11 3.29  11 3.29
   4  0.500  0.000  0.000-   1 2.85   3 2.85   5 2.85   7 2.85   9 2.85  10 2.85  11 2.85  16 2.85

   5  0.250  0.250  0.750-   2 2.85   4 2.85   6 2.85   8 2.85  12 2.85  13 2.85  14 2.85  15 2.85
                            10 3.29  11 3.29  10 3.29  11 3.29
   6  0.000  0.500  0.000-   1 2.85   3 2.85   5 2.85   7 2.85   9 2.85  10 2.85  11 2.85  16 2.85

   7  0.250  0.750  0.250-   2 2.85   4 2.85   6 2.85   8 2.85  12 2.85  13 2.85  14 2.85  15 2.85
                             9 3.29  10 3.29  16 3.29  16 3.29  10 3.29   9 3.29
   8  0.500  0.500  0.000-   1 2.85   3 2.85   5 2.85   7 2.85   9 2.85  10 2.85  11 2.85  16 2.85
                            12 3.29  12 3.29
   9  0.750  0.750  0.250-   2 2.85   4 2.85   6 2.85   8 2.85  12 2.85  13 2.85  14 2.85  15 2.85
                             7 3.29   7 3.29
  10  0.250  0.250  0.250-   2 2.85   4 2.85   6 2.85   8 2.85  12 2.85  13 2.85  14 2.85  15 2.85
                             7 3.29   5 3.29   1 3.29   5 3.29   7 3.29   1 3.29
  11  0.750  0.250  0.750-   2 2.85   4 2.85   6 2.85   8 2.85  12 2.85  13 2.85  14 2.85  15 2.85
                             3 3.29   1 3.29   5 3.29   1 3.29   3 3.29   5 3.29
  12  0.500  0.500  0.500-   1 2.85   3 2.85   5 2.85   7 2.85   9 2.85  10 2.85  11 2.85  16 2.85
                            14 3.29  15 3.29   8 3.29   8 3.29  14 3.29  15 3.29
  13  0.000  0.000  0.500-   1 2.85   3 2.85   5 2.85   7 2.85   9 2.85  10 2.85  11 2.85  16 2.85
                            15 3.29  14 3.29  15 3.29  14 3.29
  14  0.500  0.000  0.500-   1 2.85   3 2.85   5 2.85   7 2.85   9 2.85  10 2.85  11 2.85  16 2.85
                            13 3.29  12 3.29  12 3.29  13 3.29
  15  0.000  0.500  0.500-   1 2.85   3 2.85   5 2.85   7 2.85   9 2.85  10 2.85  11 2.85  16 2.85
                            13 3.29  12 3.29  13 3.29  12 3.29
  16  0.250  0.750  0.750-   2 2.85   4 2.85   6 2.85   8 2.85  12 2.85  13 2.85  14 2.85  15 2.85
                             7 3.29   7 3.29
 
  LATTYP: Found a simple cubic cell.
 ALAT       =     6.5800000000
  
  Lattice vectors:
  
 A1 = (   6.5800000000,   0.0000000000,   0.0000000000)
 A2 = (   0.0000000000,   6.5800000000,   0.0000000000)
 A3 = (   0.0000000000,   0.0000000000,   6.5800000000)


Analysis of symmetry for initial positions (statically):
=====================================================================
 Subroutine PRICEL returns:
 Original cell was already a primitive cell.
 

 Routine SETGRP: Setting up the symmetry group for a 
 simple cubic supercell.


 Subroutine GETGRP returns: Found  1 space group operations
 (whereof  1 operations were pure point group operations)
 out of a pool of 48 trial point group operations.


The static configuration has the point symmetry C_1 .


Analysis of symmetry for dynamics (positions and initial velocities):
=====================================================================
 Subroutine PRICEL returns:
 Original cell was already a primitive cell.
 

 Routine SETGRP: Setting up the symmetry group for a 
 simple cubic supercell.


 Subroutine GETGRP returns: Found  1 space group operations
 (whereof  1 operations were pure point group operations)
 out of a pool of 48 trial point group operations.


The dynamic configuration has the point symmetry C_1 .


 Subroutine INISYM returns: Found  1 space group operations
 (whereof  1 operations are pure point group operations),
 and found     1 'primitive' translations


----------------------------------------------------------------------------------------

                                     Primitive cell                                     

  volume of cell :     284.8903

  direct lattice vectors                    reciprocal lattice vectors
     6.580000000  0.000000000  0.000000000     0.151975684  0.000000000  0.000000000
     0.000000000  6.580000000  0.000000000     0.000000000  0.151975684  0.000000000
     0.000000000  0.000000000  6.580000000     0.000000000  0.000000000  0.151975684

  length of vectors
     6.580000000  6.580000000  6.580000000     0.151975684  0.151975684  0.151975684

  position of ions in fractional coordinates (direct lattice)
     0.750000000  0.250000000  0.250000000
     0.000000000  0.000000000  0.000000000
     0.750000000  0.750000000  0.750000000
     0.500000000  0.000000000  0.000000000
     0.250000000  0.250000000  0.750000000
     0.000000000  0.500000000  0.000000000
     0.250000000  0.750000000  0.250000000
     0.500000000  0.500000000  0.000000000
     0.750000000  0.750000000  0.250000000
     0.250000000  0.250000000  0.250000000
     0.750000000  0.250000000  0.750000000
     0.500000000  0.500000000  0.500000000
     0.000000000  0.000000000  0.500000000
     0.500000000  0.000000000  0.500000000
     0.000000000  0.500000000  0.500000000
     0.250000000  0.750000000  0.750000000

  ion indices of the primitive-cell ions
   primitive index   ion index
                 1           1
                 2           2
                 3           3
                 4           4
                 5           5
                 6           6
                 7           7
                 8           8
                 9           9
                10          10
                11          11
                12          12
                13          13
                14          14
                15          15
                16          16

----------------------------------------------------------------------------------------

 
 
 KPOINTS: K-Spacing Value to Generate K-Mesh: 0.03

Automatic generation of k-mesh.
 Grid dimensions read from file:
 generate k-points for:    5    5    5

 Generating k-lattice:

  Cartesian coordinates                     Fractional coordinates (reciprocal lattice)
     0.030395137  0.000000000  0.000000000     0.200000000  0.000000000  0.000000000
     0.000000000  0.030395137  0.000000000     0.000000000  0.200000000  0.000000000
     0.000000000  0.000000000  0.030395137     0.000000000  0.000000000  0.200000000

  Length of vectors
     0.030395137  0.030395137  0.030395137

  Shift w.r.t. Gamma in fractional coordinates (k-lattice)
     0.000000000  0.000000000  0.000000000

 
 Subroutine IBZKPT returns following result:
 ===========================================
 
 Found     63 irreducible k-points:
 
 Following reciprocal coordinates:
            Coordinates               Weight
  0.000000  0.000000  0.000000      1.000000
  0.200000  0.000000  0.000000      2.000000
  0.000000  0.200000  0.000000      2.000000
  0.000000  0.000000  0.200000      2.000000
  0.400000  0.000000  0.000000      2.000000
  0.000000  0.400000  0.000000      2.000000
  0.000000  0.000000  0.400000      2.000000
  0.200000  0.200000  0.000000      2.000000
  0.000000  0.200000  0.200000      2.000000
  0.200000  0.000000  0.200000      2.000000
 -0.200000  0.200000  0.000000      2.000000
 -0.200000  0.000000  0.200000      2.000000
  0.000000 -0.200000  0.200000      2.000000
  0.400000  0.200000  0.000000      2.000000
  0.000000  0.400000  0.200000      2.000000
  0.200000  0.000000  0.400000      2.000000
 -0.200000  0.400000  0.000000      2.000000
 -0.400000  0.000000  0.200000      2.000000
  0.000000  0.200000  0.400000      2.000000
  0.000000 -0.400000  0.200000      2.000000
 -0.200000  0.000000  0.400000      2.000000
  0.400000  0.000000  0.200000      2.000000
  0.000000 -0.200000  0.400000      2.000000
  0.400000 -0.200000  0.000000      2.000000
  0.200000  0.400000  0.000000      2.000000
  0.400000  0.400000  0.000000      2.000000
  0.000000  0.400000  0.400000      2.000000
  0.400000  0.000000  0.400000      2.000000
 -0.400000  0.400000  0.000000      2.000000
 -0.400000  0.000000  0.400000      2.000000
  0.000000 -0.400000  0.400000      2.000000
  0.200000  0.200000  0.200000      2.000000
 -0.200000  0.200000  0.200000      2.000000
 -0.200000 -0.200000  0.200000      2.000000
  0.200000 -0.200000  0.200000      2.000000
  0.400000  0.200000  0.200000      2.000000
  0.200000  0.400000  0.200000      2.000000
  0.200000  0.200000  0.400000      2.000000
 -0.200000  0.400000  0.200000      2.000000
 -0.400000  0.200000  0.200000      2.000000
 -0.200000  0.200000  0.400000      2.000000
 -0.400000 -0.200000  0.200000      2.000000
 -0.200000 -0.400000  0.200000      2.000000
 -0.200000 -0.200000  0.400000      2.000000
  0.200000 -0.400000  0.200000      2.000000
  0.400000 -0.200000  0.200000      2.000000
  0.200000 -0.200000  0.400000      2.000000
  0.400000  0.400000  0.200000      2.000000
  0.200000  0.400000  0.400000      2.000000
  0.400000  0.200000  0.400000      2.000000
 -0.400000  0.400000  0.200000      2.000000
 -0.400000  0.200000  0.400000      2.000000
 -0.200000  0.400000  0.400000      2.000000
 -0.400000 -0.400000  0.200000      2.000000
 -0.200000 -0.400000  0.400000      2.000000
 -0.400000 -0.200000  0.400000      2.000000
  0.400000 -0.400000  0.200000      2.000000
  0.400000 -0.200000  0.400000      2.000000
  0.200000 -0.400000  0.400000      2.000000
  0.400000  0.400000  0.400000      2.000000
 -0.400000  0.400000  0.400000      2.000000
 -0.400000 -0.400000  0.400000      2.000000
  0.400000 -0.400000  0.400000      2.000000
 
 Following cartesian coordinates:
            Coordinates               Weight
  0.000000  0.000000  0.000000      1.000000
  0.030395  0.000000  0.000000      2.000000
  0.000000  0.030395  0.000000      2.000000
  0.000000  0.000000  0.030395      2.000000
  0.060790  0.000000  0.000000      2.000000
  0.000000  0.060790  0.000000      2.000000
  0.000000  0.000000  0.060790      2.000000
  0.030395  0.030395  0.000000      2.000000
  0.000000  0.030395  0.030395      2.000000
  0.030395  0.000000  0.030395      2.000000
 -0.030395  0.030395  0.000000      2.000000
 -0.030395  0.000000  0.030395      2.000000
  0.000000 -0.030395  0.030395      2.000000
  0.060790  0.030395  0.000000      2.000000
  0.000000  0.060790  0.030395      2.000000
  0.030395  0.000000  0.060790      2.000000
 -0.030395  0.060790  0.000000      2.000000
 -0.060790  0.000000  0.030395      2.000000
  0.000000  0.030395  0.060790      2.000000
  0.000000 -0.060790  0.030395      2.000000
 -0.030395  0.000000  0.060790      2.000000
  0.060790  0.000000  0.030395      2.000000
  0.000000 -0.030395  0.060790      2.000000
  0.060790 -0.030395  0.000000      2.000000
  0.030395  0.060790  0.000000      2.000000
  0.060790  0.060790  0.000000      2.000000
  0.000000  0.060790  0.060790      2.000000
  0.060790  0.000000  0.060790      2.000000
 -0.060790  0.060790  0.000000      2.000000
 -0.060790  0.000000  0.060790      2.000000
  0.000000 -0.060790  0.060790      2.000000
  0.030395  0.030395  0.030395      2.000000
 -0.030395  0.030395  0.030395      2.000000
 -0.030395 -0.030395  0.030395      2.000000
  0.030395 -0.030395  0.030395      2.000000
  0.060790  0.030395  0.030395      2.000000
  0.030395  0.060790  0.030395      2.000000
  0.030395  0.030395  0.060790      2.000000
 -0.030395  0.060790  0.030395      2.000000
 -0.060790  0.030395  0.030395      2.000000
 -0.030395  0.030395  0.060790      2.000000
 -0.060790 -0.030395  0.030395      2.000000
 -0.030395 -0.060790  0.030395      2.000000
 -0.030395 -0.030395  0.060790      2.000000
  0.030395 -0.060790  0.030395      2.000000
  0.060790 -0.030395  0.030395      2.000000
  0.030395 -0.030395  0.060790      2.000000
  0.060790  0.060790  0.030395      2.000000
  0.030395  0.060790  0.060790      2.000000
  0.060790  0.030395  0.060790      2.000000
 -0.060790  0.060790  0.030395      2.000000
 -0.060790  0.030395  0.060790      2.000000
 -0.030395  0.060790  0.060790      2.000000
 -0.060790 -0.060790  0.030395      2.000000
 -0.030395 -0.060790  0.060790      2.000000
 -0.060790 -0.030395  0.060790      2.000000
  0.060790 -0.060790  0.030395      2.000000
  0.060790 -0.030395  0.060790      2.000000
  0.030395 -0.060790  0.060790      2.000000
  0.060790  0.060790  0.060790      2.000000
 -0.060790  0.060790  0.060790      2.000000
 -0.060790 -0.060790  0.060790      2.000000
  0.060790 -0.060790  0.060790      2.000000
 


--------------------------------------------------------------------------------------------------------




 Dimension of arrays:
   k-points           NKPTS =     63   k-points in BZ     NKDIM =     63   number of bands    NBANDS=    128
   number of dos      NEDOS =    301   number of ions     NIONS =     16
   non local maximal  LDIM  =      6   non local SUM 2l+1 LMDIM =     18
   total plane-waves  NPLWV =  46656
   max r-space proj   IRMAX =      1   max aug-charges    IRDMAX=   9546
   dimension x,y,z NGX =    36 NGY =   36 NGZ =   36
   dimension x,y,z NGXF=    72 NGYF=   72 NGZF=   72
   support grid    NGXF=    72 NGYF=   72 NGZF=   72
   ions per type =               6   3   3   4
   NGX,Y,Z   is equivalent  to a cutoff of   9.10,  9.10,  9.10 a.u.
   NGXF,Y,Z  is equivalent  to a cutoff of  18.19, 18.19, 18.19 a.u.

 SYSTEM =  unknown system                          
 POSCAR =  Nb-Mo-Ta-W alloy                        

 Startparameter for this run:
   NWRITE =      2    write-flag & timer
   PREC   = accura    normal or accurate (medium, high low for compatibility)
   ISTART =      0    job   : 0-new  1-cont  2-samecut
   ICHARG =      2    charge: 1-file 2-atom 10-const
   ISPIN  =      1    spin polarized calculation?
   LNONCOLLINEAR =      F non collinear calculations
   LSORBIT =      F    spin-orbit coupling
   INIWAV =      1    electr: 0-lowe 1-rand  2-diag
   LASPH  =      F    aspherical Exc in radial PAW
 Electronic Relaxation 1
   ENCUT  =  250.0 eV  18.37 Ry    4.29 a.u.   8.48  8.48  8.48*2*pi/ulx,y,z
   ENINI  =  250.0     initial cutoff
   ENAUG  =  455.7 eV  augmentation charge cutoff
   NELM   =     80;   NELMIN=  2; NELMDL= -5     # of ELM steps 
   EDIFF  = 0.1E-07   stopping-criterion for ELM
   LREAL  =      F    real-space projection
   NLSPLINE    = F    spline interpolate recip. space projectors
   LCOMPAT=      F    compatible to vasp.4.4
   GGA_COMPAT  = T    GGA compatible to vasp.4.4-vasp.4.6
   LMAXPAW     = -100 max onsite density
   LMAXMIX     =    2 max onsite mixed and CHGCAR
   VOSKOWN=      0    Vosko Wilk Nusair interpolation
   ROPT   =    0.00000   0.00000   0.00000   0.00000
 Ionic relaxation
   EDIFFG = -.1E-01   stopping-criterion for IOM
   NSW    =      0    number of steps for IOM
   NBLOCK =      1;   KBLOCK =      1    inner block; outer block 
   IBRION =     -1    ionic relax: 0-MD 1-quasi-New 2-CG
   NFREE  =      0    steps in history (QN), initial steepest desc. (CG)
   ISIF   =      2    stress and relaxation
   IWAVPR =     10    prediction:  0-non 1-charg 2-wave 3-comb
   ISYM   =      2    0-nonsym 1-usesym 2-fastsym
   LCORR  =      T    Harris-Foulkes like correction to forces

   POTIM  = 0.5000    time-step for ionic-motion
   TEIN   =    0.0    initial temperature
   TEBEG  =    0.0;   TEEND  =   0.0 temperature during run
   SMASS  =  -3.00    Nose mass-parameter (am)
   estimated Nose-frequenzy (Omega)   =  0.10E-29 period in steps = 0.13E+47 mass=  -0.989E-27a.u.
   SCALEE = 1.0000    scale energy and forces
   NPACO  =    256;   APACO  = 10.0  distance and # of slots for P.C.
   PSTRESS=    0.0 pullay stress

  Mass of Ions in am
   POMASS =  92.91 95.94180.95183.85
  Ionic Valenz
   ZVAL   =  13.00 14.00 11.00 14.00
  Atomic Wigner-Seitz radii
   RWIGS  =  -1.00 -1.00 -1.00 -1.00
  virtual crystal weights 
   VCA    =   1.00  1.00  1.00  1.00
   NELECT =     209.0000    total number of electrons
   NUPDOWN=      -1.0000    fix difference up-down

 DOS related values:
   EMIN   =  10.00;   EMAX   =-10.00  energy-range for DOS
   EFERMI =   0.00
   ISMEAR =     0;   SIGMA  =   0.02  broadening in eV -4-tet -1-fermi 0-gaus

 Electronic relaxation 2 (details)
   IALGO  =     38    algorithm
   LDIAG  =      T    sub-space diagonalisation (order eigenvalues)
   LSUBROT=      F    optimize rotation matrix (better conditioning)
   TURBO    =      0    0=normal 1=particle mesh
   IRESTART =      0    0=no restart 2=restart with 2 vectors
   NREBOOT  =      0    no. of reboots
   NMIN     =      0    reboot dimension
   EREF     =   0.00    reference energy to select bands
   IMIX   =      4    mixing-type and parameters
     AMIX     =   0.40;   BMIX     =  1.00
     AMIX_MAG =   1.60;   BMIX_MAG =  1.00
     AMIN     =   0.10
     WC   =   100.;   INIMIX=   1;  MIXPRE=   1;  MAXMIX= -45

 Intra band minimization:
   WEIMIN = 0.0000     energy-eigenvalue tresh-hold
   EBREAK =  0.20E-10  absolut break condition
   DEPER  =   0.30     relativ break condition  

   TIME   =   0.40     timestep for ELM

  volume/ion in A,a.u.               =      17.81       120.16
  Fermi-wavevector in a.u.,A,eV,Ry     =   1.476492  2.790165 29.661081  2.180028
  Thomas-Fermi vector in A             =   2.591012
 
 Write flags
   LWAVE        =      F    write WAVECAR
   LDOWNSAMPLE  =      F    k-point downsampling of WAVECAR
   LCHARG       =      F    write CHGCAR
   LVTOT        =      F    write LOCPOT, total local potential
   LVHAR        =      F    write LOCPOT, Hartree potential only
   LELF         =      F    write electronic localiz. function (ELF)
   LORBIT       =      0    0 simple, 1 ext, 2 COOP (PROOUT), +10 PAW based schemes


 Dipole corrections
   LMONO  =      F    monopole corrections only (constant potential shift)
   LDIPOL =      F    correct potential (dipole corrections)
   IDIPOL =      0    1-x, 2-y, 3-z, 4-all directions 
   EPSILON=  1.0000000 bulk dielectric constant

 Core level calculations are selected ICORELEVEL =  1
 Exchange correlation treatment:
   GGA     =    PE    GGA type
   LEXCH   =     8    internal setting for exchange type
   LIBXC   =     F    Libxc                    
   VOSKOWN =     0    Vosko Wilk Nusair interpolation
   LHFCALC =     F    Hartree Fock is set to
   LHFONE  =     F    Hartree Fock one center treatment
   AEXX    =    0.0000 exact exchange contribution

 Linear response parameters
   LEPSILON=     F    determine dielectric tensor
   LRPA    =     F    only Hartree local field effects (RPA)
   LNABLA  =     F    use nabla operator in PAW spheres
   LVEL    =     F    velocity operator in full k-point grid
   CSHIFT  =0.1000    complex shift for real part using Kramers Kronig
   OMEGAMAX=  -1.0    maximum frequency
   DEG_THRESHOLD= 0.2000000E-02 threshold for treating states as degnerate
   RTIME   =   -0.100 relaxation time in fs
  (WPLASMAI=    0.000 imaginary part of plasma frequency in eV, 0.658/RTIME)
   DFIELD  = 0.0000000 0.0000000 0.0000000 field for delta impulse in time
 
  Optional k-point grid parameters
   LKPOINTS_OPT  =     F    use optional k-point grid
   KPOINTS_OPT_MODE=     1    mode for optional k-point grid
 
 Orbital magnetization related:
   ORBITALMAG=     F  switch on orbital magnetization
   LCHIMAG   =     F  perturbation theory with respect to B field
   DQ        =  0.001000  dq finite difference perturbation B field
   LLRAUG    =     F  two centre corrections for induced B field



--------------------------------------------------------------------------------------------------------


 Static calculation
 charge density and potential will be updated during run
 non-spin polarized calculation
 Variant of blocked Davidson
 Davidson routine will perform the subspace rotation
 perform sub-space diagonalisation
    after iterative eigenvector-optimisation
 modified Broyden-mixing scheme, WC =      100.0
 initial mixing is a Kerker type mixing with AMIX =  0.4000 and BMIX =      1.0000
 Hartree-type preconditioning will be used
 using additional bands           23
 reciprocal scheme for non local part
 use partial core corrections
 calculate Harris-corrections to forces 
   (improved forces if not selfconsistent)
 use gradient corrections 
 use of overlap-Matrix (Vanderbilt PP)
 Gauss-broadening in eV      SIGMA  =   0.02


--------------------------------------------------------------------------------------------------------


  energy-cutoff  :      250.00
  volume of cell :      284.89
      direct lattice vectors                 reciprocal lattice vectors
     6.580000000  0.000000000  0.000000000     0.151975684  0.000000000  0.000000000
     0.000000000  6.580000000  0.000000000     0.000000000  0.151975684  0.000000000
     0.000000000  0.000000000  6.580000000     0.000000000  0.000000000  0.151975684

  length of vectors
     6.580000000  6.580000000  6.580000000     0.151975684  0.151975684  0.151975684


 
 k-points in units of 2pi/SCALE and weight: K-Spacing Value to Generate K-Mesh: 0.03
   0.00000000  0.00000000  0.00000000       0.008
   0.03039514  0.00000000  0.00000000       0.016
   0.00000000  0.03039514  0.00000000       0.016
   0.00000000  0.00000000  0.03039514       0.016
   0.06079027  0.00000000  0.00000000       0.016
   0.00000000  0.06079027  0.00000000       0.016
   0.00000000  0.00000000  0.06079027       0.016
   0.03039514  0.03039514  0.00000000       0.016
   0.00000000  0.03039514  0.03039514       0.016
   0.03039514  0.00000000  0.03039514       0.016
  -0.03039514  0.03039514  0.00000000       0.016
  -0.03039514  0.00000000  0.03039514       0.016
   0.00000000 -0.03039514  0.03039514       0.016
   0.06079027  0.03039514  0.00000000       0.016
   0.00000000  0.06079027  0.03039514       0.016
   0.03039514  0.00000000  0.06079027       0.016
  -0.03039514  0.06079027  0.00000000       0.016
  -0.06079027  0.00000000  0.03039514       0.016
   0.00000000  0.03039514  0.06079027       0.016
   0.00000000 -0.06079027  0.03039514       0.016
  -0.03039514  0.00000000  0.06079027       0.016
   0.06079027  0.00000000  0.03039514       0.016
   0.00000000 -0.03039514  0.06079027       0.016
   0.06079027 -0.03039514  0.00000000       0.016
   0.03039514  0.06079027  0.00000000       0.016
   0.06079027  0.06079027  0.00000000       0.016
   0.00000000  0.06079027  0.06079027       0.016
   0.06079027  0.00000000  0.06079027       0.016
  -0.06079027  0.06079027  0.00000000       0.016
  -0.06079027  0.00000000  0.06079027       0.016
   0.00000000 -0.06079027  0.06079027       0.016
   0.03039514  0.03039514  0.03039514       0.016
  -0.03039514  0.03039514  0.03039514       0.016
  -0.03039514 -0.03039514  0.03039514       0.016
   0.03039514 -0.03039514  0.03039514       0.016
   0.06079027  0.03039514  0.03039514       0.016
   0.03039514  0.06079027  0.03039514       0.016
   0.03039514  0.03039514  0.06079027       0.016
  -0.03039514  0.06079027  0.03039514       0.016
  -0.06079027  0.03039514  0.03039514       0.016
  -0.03039514  0.03039514  0.06079027       0.016
  -0.06079027 -0.03039514  0.03039514       0.016
  -0.03039514 -0.06079027  0.03039514       0.016
  -0.03039514 -0.03039514  0.06079027       0.016
   0.03039514 -0.06079027  0.03039514       0.016
   0.06079027 -0.03039514  0.03039514       0.016
   0.03039514 -0.03039514  0.06079027       0.016
   0.06079027  0.06079027  0.03039514       0.016
   0.03039514  0.06079027  0.06079027       0.016
   0.06079027  0.03039514  0.06079027       0.016
  -0.06079027  0.06079027  0.03039514       0.016
  -0.06079027  0.03039514  0.06079027       0.016
  -0.03039514  0.06079027  0.06079027       0.016
  -0.06079027 -0.06079027  0.03039514       0.016
  -0.03039514 -0.06079027  0.06079027       0.016
  -0.06079027 -0.03039514  0.06079027       0.016
   0.06079027 -0.06079027  0.03039514       0.016
   0.06079027 -0.03039514  0.06079027       0.016
   0.03039514 -0.06079027  0.06079027       0.016
   0.06079027  0.06079027  0.06079027       0.016
  -0.06079027  0.06079027  0.06079027       0.016
  -0.06079027 -0.06079027  0.06079027       0.016
   0.06079027 -0.06079027  0.06079027       0.016
 
 k-points in reciprocal lattice and weights: K-Spacing Value to Generate K-Mesh: 0.03
   0.00000000  0.00000000  0.00000000       0.008
   0.20000000  0.00000000  0.00000000       0.016
   0.00000000  0.20000000  0.00000000       0.016
   0.00000000  0.00000000  0.20000000       0.016
   0.40000000  0.00000000  0.00000000       0.016
   0.00000000  0.40000000  0.00000000       0.016
   0.00000000  0.00000000  0.40000000       0.016
   0.20000000  0.20000000  0.00000000       0.016
   0.00000000  0.20000000  0.20000000       0.016
   0.20000000  0.00000000  0.20000000       0.016
  -0.20000000  0.20000000  0.00000000       0.016
  -0.20000000  0.00000000  0.20000000       0.016
   0.00000000 -0.20000000  0.20000000       0.016
   0.40000000  0.20000000  0.00000000       0.016
   0.00000000  0.40000000  0.20000000       0.016
   0.20000000  0.00000000  0.40000000       0.016
  -0.20000000  0.40000000  0.00000000       0.016
  -0.40000000  0.00000000  0.20000000       0.016
   0.00000000  0.20000000  0.40000000       0.016
   0.00000000 -0.40000000  0.20000000       0.016
  -0.20000000  0.00000000  0.40000000       0.016
   0.40000000  0.00000000  0.20000000       0.016
   0.00000000 -0.20000000  0.40000000       0.016
   0.40000000 -0.20000000  0.00000000       0.016
   0.20000000  0.40000000  0.00000000       0.016
   0.40000000  0.40000000  0.00000000       0.016
   0.00000000  0.40000000  0.40000000       0.016
   0.40000000  0.00000000  0.40000000       0.016
  -0.40000000  0.40000000  0.00000000       0.016
  -0.40000000  0.00000000  0.40000000       0.016
   0.00000000 -0.40000000  0.40000000       0.016
   0.20000000  0.20000000  0.20000000       0.016
  -0.20000000  0.20000000  0.20000000       0.016
  -0.20000000 -0.20000000  0.20000000       0.016
   0.20000000 -0.20000000  0.20000000       0.016
   0.40000000  0.20000000  0.20000000       0.016
   0.20000000  0.40000000  0.20000000       0.016
   0.20000000  0.20000000  0.40000000       0.016
  -0.20000000  0.40000000  0.20000000       0.016
  -0.40000000  0.20000000  0.20000000       0.016
  -0.20000000  0.20000000  0.40000000       0.016
  -0.40000000 -0.20000000  0.20000000       0.016
  -0.20000000 -0.40000000  0.20000000       0.016
  -0.20000000 -0.20000000  0.40000000       0.016
   0.20000000 -0.40000000  0.20000000       0.016
   0.40000000 -0.20000000  0.20000000       0.016
   0.20000000 -0.20000000  0.40000000       0.016
   0.40000000  0.40000000  0.20000000       0.016
   0.20000000  0.40000000  0.40000000       0.016
   0.40000000  0.20000000  0.40000000       0.016
  -0.40000000  0.40000000  0.20000000       0.016
  -0.40000000  0.20000000  0.40000000       0.016
  -0.20000000  0.40000000  0.40000000       0.016
  -0.40000000 -0.40000000  0.20000000       0.016
  -0.20000000 -0.40000000  0.40000000       0.016
  -0.40000000 -0.20000000  0.40000000       0.016
   0.40000000 -0.40000000  0.20000000       0.016
   0.40000000 -0.20000000  0.40000000       0.016
   0.20000000 -0.40000000  0.40000000       0.016
   0.40000000  0.40000000  0.40000000       0.016
  -0.40000000  0.40000000  0.40000000       0.016
  -0.40000000 -0.40000000  0.40000000       0.016
   0.40000000 -0.40000000  0.40000000       0.016
 
 position of ions in fractional coordinates (direct lattice) 
   0.75000000  0.25000000  0.25000000
   0.00000000  0.00000000  0.00000000
   0.75000000  0.75000000  0.75000000
   0.50000000  0.00000000  0.00000000
   0.25000000  0.25000000  0.75000000
   0.00000000  0.50000000  0.00000000
   0.25000000  0.75000000  0.25000000
   0.50000000  0.50000000  0.00000000
   0.75000000  0.75000000  0.25000000
   0.25000000  0.25000000  0.25000000
   0.75000000  0.25000000  0.75000000
   0.50000000  0.50000000  0.50000000
   0.00000000  0.00000000  0.50000000
   0.50000000  0.00000000  0.50000000
   0.00000000  0.50000000  0.50000000
   0.25000000  0.75000000  0.75000000
 
 position of ions in cartesian coordinates  (Angst):
   4.93500000  1.64500000  1.64500000
   0.00000000  0.00000000  0.00000000
   4.93500000  4.93500000  4.93500000
   3.29000000  0.00000000  0.00000000
   1.64500000  1.64500000  4.93500000
   0.00000000  3.29000000  0.00000000
   1.64500000  4.93500000  1.64500000
   3.29000000  3.29000000  0.00000000
   4.93500000  4.93500000  1.64500000
   1.64500000  1.64500000  1.64500000
   4.93500000  1.64500000  4.93500000
   3.29000000  3.29000000  3.29000000
   0.00000000  0.00000000  3.29000000
   3.29000000  0.00000000  3.29000000
   0.00000000  3.29000000  3.29000000
   1.64500000  4.93500000  4.93500000
 


--------------------------------------------------------------------------------------------------------


 k-point   1 :   0.0000 0.0000 0.0000  plane waves:    2517
 k-point   2 :   0.2000 0.0000 0.0000  plane waves:    2545
 k-point   3 :   0.0000 0.2000 0.0000  plane waves:    2545
 k-point   4 :   0.0000 0.0000 0.2000  plane waves:    2545
 k-point   5 :   0.4000 0.0000 0.0000  plane waves:    2569
 k-point   6 :   0.0000 0.4000 0.0000  plane waves:    2569
 k-point   7 :   0.0000 0.0000 0.4000  plane waves:    2569
 k-point   8 :   0.2000 0.2000 0.0000  plane waves:    2562
 k-point   9 :   0.0000 0.2000 0.2000  plane waves:    2562
 k-point  10 :   0.2000 0.0000 0.2000  plane waves:    2562
 k-point  11 :  -0.2000 0.2000 0.0000  plane waves:    2562
 k-point  12 :  -0.2000 0.0000 0.2000  plane waves:    2562
 k-point  13 :   0.0000-0.2000 0.2000  plane waves:    2562
 k-point  14 :   0.4000 0.2000 0.0000  plane waves:    2566
 k-point  15 :   0.0000 0.4000 0.2000  plane waves:    2566
 k-point  16 :   0.2000 0.0000 0.4000  plane waves:    2566
 k-point  17 :  -0.2000 0.4000 0.0000  plane waves:    2566
 k-point  18 :  -0.4000 0.0000 0.2000  plane waves:    2566
 k-point  19 :   0.0000 0.2000 0.4000  plane waves:    2566
 k-point  20 :   0.0000-0.4000 0.2000  plane waves:    2566
 k-point  21 :  -0.2000 0.0000 0.4000  plane waves:    2566
 k-point  22 :   0.4000 0.0000 0.2000  plane waves:    2566
 k-point  23 :   0.0000-0.2000 0.4000  plane waves:    2566
 k-point  24 :   0.4000-0.2000 0.0000  plane waves:    2566
 k-point  25 :   0.2000 0.4000 0.0000  plane waves:    2566
 k-point  26 :   0.4000 0.4000 0.0000  plane waves:    2570
 k-point  27 :   0.0000 0.4000 0.4000  plane waves:    2570
 k-point  28 :   0.4000 0.0000 0.4000  plane waves:    2570
 k-point  29 :  -0.4000 0.4000 0.0000  plane waves:    2570
 k-point  30 :  -0.4000 0.0000 0.4000  plane waves:    2570
 k-point  31 :   0.0000-0.4000 0.4000  plane waves:    2570
 k-point  32 :   0.2000 0.2000 0.2000  plane waves:    2572
 k-point  33 :  -0.2000 0.2000 0.2000  plane waves:    2572
 k-point  34 :  -0.2000-0.2000 0.2000  plane waves:    2572
 k-point  35 :   0.2000-0.2000 0.2000  plane waves:    2572
 k-point  36 :   0.4000 0.2000 0.2000  plane waves:    2546
 k-point  37 :   0.2000 0.4000 0.2000  plane waves:    2546
 k-point  38 :   0.2000 0.2000 0.4000  plane waves:    2546
 k-point  39 :  -0.2000 0.4000 0.2000  plane waves:    2546
 k-point  40 :  -0.4000 0.2000 0.2000  plane waves:    2546
 k-point  41 :  -0.2000 0.2000 0.4000  plane waves:    2546
 k-point  42 :  -0.4000-0.2000 0.2000  plane waves:    2546
 k-point  43 :  -0.2000-0.4000 0.2000  plane waves:    2546
 k-point  44 :  -0.2000-0.2000 0.4000  plane waves:    2546
 k-point  45 :   0.2000-0.4000 0.2000  plane waves:    2546
 k-point  46 :   0.4000-0.2000 0.2000  plane waves:    2546
 k-point  47 :   0.2000-0.2000 0.4000  plane waves:    2546
 k-point  48 :   0.4000 0.4000 0.2000  plane waves:    2549
 k-point  49 :   0.2000 0.4000 0.4000  plane waves:    2549
 k-point  50 :   0.4000 0.2000 0.4000  plane waves:    2549
 k-point  51 :  -0.4000 0.4000 0.2000  plane waves:    2549
 k-point  52 :  -0.4000 0.2000 0.4000  plane waves:    2549
 k-point  53 :  -0.2000 0.4000 0.4000  plane waves:    2549
 k-point  54 :  -0.4000-0.4000 0.2000  plane waves:    2549
 k-point  55 :  -0.2000-0.4000 0.4000  plane waves:    2549
 k-point  56 :  -0.4000-0.2000 0.4000  plane waves:    2549
 k-point  57 :   0.4000-0.4000 0.2000  plane waves:    2549
 k-point  58 :   0.4000-0.2000 0.4000  plane waves:    2549
 k-point  59 :   0.2000-0.4000 0.4000  plane waves:    2549
 k-point  60 :   0.4000 0.4000 0.4000  plane waves:    2533
 k-point  61 :  -0.4000 0.4000 0.4000  plane waves:    2533
 k-point  62 :  -0.4000-0.4000 0.4000  plane waves:    2533
 k-point  63 :   0.4000-0.4000 0.4000  plane waves:    2533

 maximum and minimum number of plane-waves per node :       235      194

 maximum number of plane-waves:      2572
 maximum index in each direction: 
   IXMAX=    8   IYMAX=    8   IZMAX=    8
   IXMIN=   -8   IYMIN=   -8   IZMIN=   -8


 parallel 3D FFT for wavefunctions:
    minimum data exchange during FFTs selected (reduces bandwidth)
 parallel 3D FFT for charge:
    minimum data exchange during FFTs selected (reduces bandwidth)


 total amount of memory used by VASP MPI-rank0    48253. kBytes
=======================================================================

   base      :      30000. kBytes
   nonl-proj :       8332. kBytes
   fftplans  :        456. kBytes
   grid      :        919. kBytes
   one-center:         31. kBytes
   wavefun   :       8515. kBytes
 
     INWAV:  cpu time      0.0000: real time      0.0003
 Broyden mixing: mesh for mixing (old mesh)
   NGX = 17   NGY = 17   NGZ = 17
  (NGX  = 72   NGY  = 72   NGZ  = 72)
  gives a total of   4913 points

 initial charge density was supplied:
 charge density of overlapping atoms calculated
 number of electron     209.0000000 magnetization 
 keeping initial charge density in first step


--------------------------------------------------------------------------------------------------------


 Maximum index for augmentation-charges          517 (set IRDMAX)


--------------------------------------------------------------------------------------------------------


 First call to EWALD:  gamma=   0.269
 Maximum number of real-space cells 3x 3x 3
 Maximum number of reciprocal cells 3x 3x 3

    FEWALD:  cpu time      0.0013: real time      0.0013


--------------------------------------- Iteration      1(   1)  ---------------------------------------


    POTLOK:  cpu time      0.0087: real time      0.3613
    SETDIJ:  cpu time      0.0024: real time      0.0025
     EDDAV:  cpu time      3.2291: real time      3.2430
       DOS:  cpu time      0.0042: real time      0.0042
    --------------------------------------------
      LOOP:  cpu time      3.2443: real time      3.6110

 eigenvalue-minimisations  : 16416
 total energy-change (2. order) : 0.1954534E+04  (-0.8096866E+04)
 number of electron     209.0000000 magnetization 
 augmentation part      209.0000000 magnetization 

 Free energy of the ion-electron system (eV)
  ---------------------------------------------------
  alpha Z        PSCENC =      1755.12879806
  Ewald energy   TEWEN  =    -21795.13023243
  -Hartree energ DENC   =     -4074.34167556
  -exchange      EXHF   =         0.00000000
  -V(xc)+E(xc)   XCENC  =       840.46417988
  PAW double counting   =     20212.93710550   -19903.51691788
  entropy T*S    EENTRO =        -0.00094444
  eigenvalues    EBANDS =      -600.94749312
  atomic energy  EATOM  =     25519.94140028
  Solvation  Ediel_sol  =         0.00000000
  ---------------------------------------------------
  free energy    TOTEN  =      1954.53422028 eV

  energy without entropy =     1954.53516472  energy(sigma->0) =     1954.53469250


--------------------------------------------------------------------------------------------------------




--------------------------------------- Iteration      1(   2)  ---------------------------------------


     EDDAV:  cpu time      3.1098: real time      3.1232
       DOS:  cpu time      0.0045: real time      0.0046
    --------------------------------------------
      LOOP:  cpu time      3.1143: real time      3.1277

 eigenvalue-minimisations  : 16648
 total energy-change (2. order) :-0.1962309E+04  (-0.1898927E+04)
 number of electron     209.0000000 magnetization 
 augmentation part      209.0000000 magnetization 

 Free energy of the ion-electron system (eV)
  ---------------------------------------------------
  alpha Z        PSCENC =      1755.12879806
  Ewald energy   TEWEN  =    -21795.13023243
  -Hartree energ DENC   =     -4074.34167556
  -exchange      EXHF   =         0.00000000
  -V(xc)+E(xc)   XCENC  =       840.46417988
  PAW double counting   =     20212.93710550   -19903.51691788
  entropy T*S    EENTRO =        -0.00255234
  eigenvalues    EBANDS =     -2563.25474504
  atomic energy  EATOM  =     25519.94140028
  Solvation  Ediel_sol  =         0.00000000
  ---------------------------------------------------
  free energy    TOTEN  =        -7.77463954 eV

  energy without entropy =       -7.77208720  energy(sigma->0) =       -7.77336337


--------------------------------------------------------------------------------------------------------




--------------------------------------- Iteration      1(   3)  ---------------------------------------


     EDDAV:  cpu time      4.3150: real time      4.3319
       DOS:  cpu time      0.0049: real time      0.0050
    --------------------------------------------
      LOOP:  cpu time      4.3199: real time      4.3369

 eigenvalue-minimisations  : 25344
 total energy-change (2. order) :-0.1711878E+03  (-0.1613216E+03)
 number of electron     209.0000000 magnetization 
 augmentation part      209.0000000 magnetization 

 Free energy of the ion-electron system (eV)
  ---------------------------------------------------
  alpha Z        PSCENC =      1755.12879806
  Ewald energy   TEWEN  =    -21795.13023243
  -Hartree energ DENC   =     -4074.34167556
  -exchange      EXHF   =         0.00000000
  -V(xc)+E(xc)   XCENC  =       840.46417988
  PAW double counting   =     20212.93710550   -19903.51691788
  entropy T*S    EENTRO =        -0.00289148
  eigenvalues    EBANDS =     -2734.44222769
  atomic energy  EATOM  =     25519.94140028
  Solvation  Ediel_sol  =         0.00000000
  ---------------------------------------------------
  free energy    TOTEN  =      -178.96246133 eV

  energy without entropy =     -178.95956985  energy(sigma->0) =     -178.96101559


--------------------------------------------------------------------------------------------------------




--------------------------------------- Iteration      1(   4)  ---------------------------------------


     EDDAV:  cpu time      4.2026: real time      4.2191
       DOS:  cpu time      0.0047: real time      0.0048
    --------------------------------------------
      LOOP:  cpu time      4.2073: real time      4.2239

 eigenvalue-minimisations  : 25000
 total energy-change (2. order) :-0.1164403E+02  (-0.1136559E+02)
 number of electron     209.0000000 magnetization 
 augmentation part      209.0000000 magnetization 

 Free energy of the ion-electron system (eV)
  ---------------------------------------------------
  alpha Z        PSCENC =      1755.12879806
  Ewald energy   TEWEN  =    -21795.13023243
  -Hartree energ DENC   =     -4074.34167556
  -exchange      EXHF   =         0.00000000
  -V(xc)+E(xc)   XCENC  =       840.46417988
  PAW double counting   =     20212.93710550   -19903.51691788
  entropy T*S    EENTRO =        -0.00310541
  eigenvalues    EBANDS =     -2746.08604160
  atomic energy  EATOM  =     25519.94140028
  Solvation  Ediel_sol  =         0.00000000
  ---------------------------------------------------
  free energy    TOTEN  =      -190.60648916 eV

  energy without entropy =     -190.60338375  energy(sigma->0) =     -190.60493645


--------------------------------------------------------------------------------------------------------




--------------------------------------- Iteration      1(   5)  ---------------------------------------


     EDDAV:  cpu time     26.9370: real time     27.0919
       DOS:  cpu time      0.0050: real time      0.0050
    CHARGE:  cpu time      0.0838: real time      0.0841
    MIXING:  cpu time      0.0002: real time      0.0002
    --------------------------------------------
      LOOP:  cpu time     27.0260: real time     27.1813

 eigenvalue-minimisations  : 25016
 total energy-change (2. order) :-0.6664692E+00  (-0.6618622E+00)
 number of electron     208.9999827 magnetization 
 augmentation part       40.0812793 magnetization 

 Broyden mixing:
  rms(total) = 0.51231E+01    rms(broyden)= 0.51220E+01
  rms(prec ) = 0.56721E+01
  weight for this iteration     100.00

 Free energy of the ion-electron system (eV)
  ---------------------------------------------------
  alpha Z        PSCENC =      1755.12879806
  Ewald energy   TEWEN  =    -21795.13023243
  -Hartree energ DENC   =     -4074.34167556
  -exchange      EXHF   =         0.00000000
  -V(xc)+E(xc)   XCENC  =       840.46417988
  PAW double counting   =     20212.93710550   -19903.51691788
  entropy T*S    EENTRO =        -0.00319718
  eigenvalues    EBANDS =     -2746.75241903
  atomic energy  EATOM  =     25519.94140028
  Solvation  Ediel_sol  =         0.00000000
  ---------------------------------------------------
  free energy    TOTEN  =      -191.27295837 eV

  energy without entropy =     -191.26976118  energy(sigma->0) =     -191.27135978


--------------------------------------------------------------------------------------------------------




--------------------------------------- Iteration      1(   6)  ---------------------------------------


    POTLOK:  cpu time      0.0041: real time      0.0043
    SETDIJ:  cpu time      0.0018: real time      0.0018
     EDDAV:  cpu time      3.4667: real time      3.4816
       DOS:  cpu time      0.0048: real time      0.0049
    CHARGE:  cpu time      0.0854: real time      0.0857
    MIXING:  cpu time      0.0003: real time      0.0003
    --------------------------------------------
      LOOP:  cpu time      3.5632: real time      3.5786

 eigenvalue-minimisations  : 19272
 total energy-change (2. order) : 0.7164157E+01  (-0.2110514E+01)
 number of electron     208.9999817 magnetization 
 augmentation part       41.7516712 magnetization 

 Broyden mixing:
  rms(total) = 0.19234E+01    rms(broyden)= 0.19230E+01
  rms(prec ) = 0.24983E+01
  weight for this iteration     100.00

 eigenvalues of (default mixing * dielectric matrix)
  average eigenvalue GAMMA=   1.4354
  1.4354

 Free energy of the ion-electron system (eV)
  ---------------------------------------------------
  alpha Z        PSCENC =      1755.12879806
  Ewald energy   TEWEN  =    -21795.13023243
  -Hartree energ DENC   =     -3854.45519053
  -exchange      EXHF   =         0.00000000
  -V(xc)+E(xc)   XCENC  =       829.55603578
  PAW double counting   =     23885.24954319   -23599.66805268
  entropy T*S    EENTRO =        -0.00299150
  eigenvalues    EBANDS =     -2924.72811182
  atomic energy  EATOM  =     25519.94140028
  Solvation  Ediel_sol  =         0.00000000
  ---------------------------------------------------
  free energy    TOTEN  =      -184.10880166 eV

  energy without entropy =     -184.10581016  energy(sigma->0) =     -184.10730591


--------------------------------------------------------------------------------------------------------




--------------------------------------- Iteration      1(   7)  ---------------------------------------


    POTLOK:  cpu time      0.0045: real time      0.0047
    SETDIJ:  cpu time      0.0017: real time      0.0018
     EDDAV:  cpu time      4.0050: real time      4.0220
       DOS:  cpu time      0.0045: real time      0.0045
    CHARGE:  cpu time      0.0852: real time      0.0855
    MIXING:  cpu time      0.0002: real time      0.0002
    --------------------------------------------
      LOOP:  cpu time      4.1012: real time      4.1186

 eigenvalue-minimisations  : 23432
 total energy-change (2. order) :-0.6880435E+00  (-0.1840513E+01)
 number of electron     208.9999823 magnetization 
 augmentation part       41.4687538 magnetization 

 Broyden mixing:
  rms(total) = 0.11861E+01    rms(broyden)= 0.11856E+01
  rms(prec ) = 0.28150E+01
  weight for this iteration     100.00

 eigenvalues of (default mixing * dielectric matrix)
  average eigenvalue GAMMA=   1.0521
  1.5992  0.5050

 Free energy of the ion-electron system (eV)
  ---------------------------------------------------
  alpha Z        PSCENC =      1755.12879806
  Ewald energy   TEWEN  =    -21795.13023243
  -Hartree energ DENC   =     -3792.59756946
  -exchange      EXHF   =         0.00000000
  -V(xc)+E(xc)   XCENC  =       825.90952108
  PAW double counting   =     26053.23995764   -25774.47028292
  entropy T*S    EENTRO =        -0.00218428
  eigenvalues    EBANDS =     -2976.81625311
  atomic energy  EATOM  =     25519.94140028
  Solvation  Ediel_sol  =         0.00000000
  ---------------------------------------------------
  free energy    TOTEN  =      -184.79684514 eV

  energy without entropy =     -184.79466086  energy(sigma->0) =     -184.79575300


--------------------------------------------------------------------------------------------------------




--------------------------------------- Iteration      1(   8)  ---------------------------------------


    POTLOK:  cpu time      0.0046: real time      0.0047
    SETDIJ:  cpu time      0.0018: real time      0.0018
     EDDAV:  cpu time      3.6490: real time      3.6641
       DOS:  cpu time      0.0050: real time      0.0050
    CHARGE:  cpu time      0.0846: real time      0.0849
    MIXING:  cpu time      0.0003: real time      0.0003
    --------------------------------------------
      LOOP:  cpu time      3.7452: real time      3.7608

 eigenvalue-minimisations  : 20712
 total energy-change (2. order) : 0.2825691E+01  (-0.8468849E+00)
 number of electron     208.9999820 magnetization 
 augmentation part       41.9497500 magnetization 

 Broyden mixing:
  rms(total) = 0.39854E+00    rms(broyden)= 0.39772E+00
  rms(prec ) = 0.61044E+00
  weight for this iteration     100.00

 eigenvalues of (default mixing * dielectric matrix)
  average eigenvalue GAMMA=   1.0225
  1.6679  1.0002  0.3995

 Free energy of the ion-electron system (eV)
  ---------------------------------------------------
  alpha Z        PSCENC =      1755.12879806
  Ewald energy   TEWEN  =    -21795.13023243
  -Hartree energ DENC   =     -3748.77825454
  -exchange      EXHF   =         0.00000000
  -V(xc)+E(xc)   XCENC  =       823.96220346
  PAW double counting   =     26969.25982930   -26694.91002623
  entropy T*S    EENTRO =        -0.00321305
  eigenvalues    EBANDS =     -3011.44165893
  atomic energy  EATOM  =     25519.94140028
  Solvation  Ediel_sol  =         0.00000000
  ---------------------------------------------------
  free energy    TOTEN  =      -181.97115408 eV

  energy without entropy =     -181.96794103  energy(sigma->0) =     -181.96954755


--------------------------------------------------------------------------------------------------------




--------------------------------------- Iteration      1(   9)  ---------------------------------------


    POTLOK:  cpu time      0.0045: real time      0.0047
    SETDIJ:  cpu time      0.0017: real time      0.0017
     EDDAV:  cpu time      3.7997: real time      3.8145
       DOS:  cpu time      0.0047: real time      0.0048
    CHARGE:  cpu time      0.0817: real time      0.0820
    MIXING:  cpu time      0.0005: real time      0.0005
    --------------------------------------------
      LOOP:  cpu time      3.8928: real time      3.9082

 eigenvalue-minimisations  : 21984
 total energy-change (2. order) :-0.4250689E-01  (-0.1617360E+00)
 number of electron     208.9999821 magnetization 
 augmentation part       41.9653223 magnetization 

 Broyden mixing:
  rms(total) = 0.31507E+00    rms(broyden)= 0.31497E+00
  rms(prec ) = 0.46119E+00
  weight for this iteration     100.00

 eigenvalues of (default mixing * dielectric matrix)
  average eigenvalue GAMMA=   1.1050
  1.7705  1.7705  0.5192  0.3598

 Free energy of the ion-electron system (eV)
  ---------------------------------------------------
  alpha Z        PSCENC =      1755.12879806
  Ewald energy   TEWEN  =    -21795.13023243
  -Hartree energ DENC   =     -3745.59414340
  -exchange      EXHF   =         0.00000000
  -V(xc)+E(xc)   XCENC  =       823.82551350
  PAW double counting   =     27198.39273165   -26923.20135007
  entropy T*S    EENTRO =        -0.00317349
  eigenvalues    EBANDS =     -3015.37320506
  atomic energy  EATOM  =     25519.94140028
  Solvation  Ediel_sol  =         0.00000000
  ---------------------------------------------------
  free energy    TOTEN  =      -182.01366097 eV

  energy without entropy =     -182.01048748  energy(sigma->0) =     -182.01207423


--------------------------------------------------------------------------------------------------------




--------------------------------------- Iteration      1(  10)  ---------------------------------------


    POTLOK:  cpu time      0.0065: real time      0.0069
    SETDIJ:  cpu time      0.0017: real time      0.0017
     EDDAV:  cpu time      3.7140: real time      3.7289
       DOS:  cpu time      0.0048: real time      0.0048
    CHARGE:  cpu time      0.0849: real time      0.0851
    MIXING:  cpu time      0.0003: real time      0.0003
    --------------------------------------------
      LOOP:  cpu time      3.8121: real time      3.8277

 eigenvalue-minimisations  : 21248
 total energy-change (2. order) : 0.3793085E-01  (-0.3334108E-01)
 number of electron     208.9999821 magnetization 
 augmentation part       41.9073254 magnetization 

 Broyden mixing:
  rms(total) = 0.13906E+00    rms(broyden)= 0.13900E+00
  rms(prec ) = 0.20136E+00
  weight for this iteration     100.00

 eigenvalues of (default mixing * dielectric matrix)
  average eigenvalue GAMMA=   1.1643
  2.4975  1.6912  0.8467  0.4231  0.3631

 Free energy of the ion-electron system (eV)
  ---------------------------------------------------
  alpha Z        PSCENC =      1755.12879806
  Ewald energy   TEWEN  =    -21795.13023243
  -Hartree energ DENC   =     -3748.03524884
  -exchange      EXHF   =         0.00000000
  -V(xc)+E(xc)   XCENC  =       823.91144034
  PAW double counting   =     27395.97116530   -27118.29428276
  entropy T*S    EENTRO =        -0.00317046
  eigenvalues    EBANDS =     -3015.46559962
  atomic energy  EATOM  =     25519.94140028
  Solvation  Ediel_sol  =         0.00000000
  ---------------------------------------------------
  free energy    TOTEN  =      -181.97573012 eV

  energy without entropy =     -181.97255966  energy(sigma->0) =     -181.97414489


--------------------------------------------------------------------------------------------------------




--------------------------------------- Iteration      1(  11)  ---------------------------------------


    POTLOK:  cpu time      0.0039: real time      0.0041
    SETDIJ:  cpu time      0.0016: real time      0.0016
     EDDAV:  cpu time      3.8089: real time      3.8244
       DOS:  cpu time      0.0047: real time      0.0047
    CHARGE:  cpu time      0.0855: real time      0.0858
    MIXING:  cpu time      0.0003: real time      0.0003
    --------------------------------------------
      LOOP:  cpu time      3.9049: real time      3.9209

 eigenvalue-minimisations  : 21944
 total energy-change (2. order) : 0.1817261E-02  (-0.8510210E-02)
 number of electron     208.9999822 magnetization 
 augmentation part       41.8654116 magnetization 

 Broyden mixing:
  rms(total) = 0.41248E-01    rms(broyden)= 0.41164E-01
  rms(prec ) = 0.98132E-01
  weight for this iteration     100.00

 eigenvalues of (default mixing * dielectric matrix)
  average eigenvalue GAMMA=   1.0854
  2.5337  1.6736  0.8654  0.6523  0.4260  0.3615

 Free energy of the ion-electron system (eV)
  ---------------------------------------------------
  alpha Z        PSCENC =      1755.12879806
  Ewald energy   TEWEN  =    -21795.13023243
  -Hartree energ DENC   =     -3750.53820953
  -exchange      EXHF   =         0.00000000
  -V(xc)+E(xc)   XCENC  =       824.01344555
  PAW double counting   =     27516.86858097   -27236.94161516
  entropy T*S    EENTRO =        -0.00331408
  eigenvalues    EBANDS =     -3015.31276653
  atomic energy  EATOM  =     25519.94140028
  Solvation  Ediel_sol  =         0.00000000
  ---------------------------------------------------
  free energy    TOTEN  =      -181.97391286 eV

  energy without entropy =     -181.97059878  energy(sigma->0) =     -181.97225582


--------------------------------------------------------------------------------------------------------




--------------------------------------- Iteration      1(  12)  ---------------------------------------


    POTLOK:  cpu time      0.0044: real time      0.0047
    SETDIJ:  cpu time      0.0017: real time      0.0017
     EDDAV:  cpu time      3.7525: real time      3.7679
       DOS:  cpu time      0.0048: real time      0.0049
    CHARGE:  cpu time      0.0846: real time      0.0849
    MIXING:  cpu time      0.0004: real time      0.0004
    --------------------------------------------
      LOOP:  cpu time      3.8484: real time      3.8643

 eigenvalue-minimisations  : 21504
 total energy-change (2. order) : 0.2609847E-02  (-0.2173681E-02)
 number of electron     208.9999822 magnetization 
[...]
     33     -24.8568      2.00000
     34     -24.8149      2.00000
     35     -24.4167      2.00000
     36     -24.3443      2.00000
     37     -24.2131      2.00000
     38     -24.1586      2.00000
     39     -24.1489      2.00000
     40     -24.1080      2.00000
     41     -24.0898      2.00000
     42     -24.0156      2.00000
     43     -23.9470      2.00000
     44     -21.1222      2.00000
     45     -21.1141      2.00000
     46     -21.1023      2.00000
     47     -21.0848      2.00000
     48     -21.0398      2.00000
     49     -21.0272      2.00000
     50     -20.9892      2.00000
     51     -20.8707      2.00000
     52     -20.8515      2.00000
     53     -20.7288      2.00000
     54     -20.7071      2.00000
     55     -20.6103      2.00000
     56     -20.5635      2.00000
     57     -20.5531      2.00000
     58     -20.5230      2.00000
     59     -20.5123      2.00000
     60     -20.5058      2.00000
     61     -20.4948      2.00000
     62       4.3238      2.00000
     63       4.8381      2.00000
     64       5.0486      2.00000
     65       5.4071      2.00000
     66       5.7764      2.00000
     67       5.9820      2.00000
     68       6.1043      2.00000
     69       6.6840      2.00000
     70       6.8778      2.00000
     71       6.9297      2.00000
     72       6.9592      2.00000
     73       7.0163      2.00000
     74       7.0268      2.00000
     75       7.1653      2.00000
     76       7.2104      2.00000
     77       7.2565      2.00000
     78       7.2779      2.00000
     79       7.3288      2.00000
     80       7.3679      2.00000
     81       7.3744      2.00000
     82       7.6673      2.00000
     83       7.6954      2.00000
     84       7.8001      2.00000
     85       7.8151      2.00000
     86       7.8583      2.00000
     87       7.9009      2.00000
     88       7.9505      2.00000
     89       7.9849      2.00000
     90       8.0110      2.00000
     91       8.0456      2.00000
     92       8.0865      2.00000
     93       8.1242      2.00000
     94       8.1376      2.00000
     95       8.1702      2.00000
     96       8.1907      2.00000
     97       8.2252      2.00000
     98       8.2513      2.00000
     99       8.2789      2.00000
    100       8.3076      2.00000
    101       8.3318      2.00000
    102       8.3870      2.00000
    103       8.4320      2.00000
    104       8.4807      2.00000
    105       8.5427      2.00000
    106       8.5878      2.00000
    107       8.5976      2.00000
    108       8.6371      2.00000
    109       9.0195      2.00000
    110      11.6836      0.00000
    111      11.7628      0.00000
    112      11.8237      0.00000
    113      11.9191      0.00000
    114      11.9960      0.00000
    115      12.0469      0.00000
    116      12.1228      0.00000
    117      12.1649      0.00000
    118      12.2341      0.00000
    119      12.2618      0.00000
    120      12.2895      0.00000
    121      12.3334      0.00000
    122      12.4421      0.00000
    123      12.4941      0.00000
    124      12.6005      0.00000
    125      12.6604      0.00000
    126      12.7677      0.00000
    127      12.7876      0.00000
    128      12.8454      0.00000

 k-point    63 :       0.4000   -0.4000    0.4000
  band No.  band energies     occupation 
      1     -63.9604      2.00000
      2     -63.9523      2.00000
      3     -63.9499      2.00000
      4     -63.9216      2.00000
      5     -50.8950      2.00000
      6     -50.8673      2.00000
      7     -50.8394      2.00000
      8     -44.7754      2.00000
      9     -44.7515      2.00000
     10     -44.7265      2.00000
     11     -44.6589      2.00000
     12     -44.6464      2.00000
     13     -44.6222      2.00000
     14     -28.3382      2.00000
     15     -28.3202      2.00000
     16     -28.2381      2.00000
     17     -28.2014      2.00000
     18     -28.1789      2.00000
     19     -28.1676      2.00000
     20     -28.1630      2.00000
     21     -28.1543      2.00000
     22     -28.1455      2.00000
     23     -28.0542      2.00000
     24     -27.9869      2.00000
     25     -27.9698      2.00000
     26     -25.1803      2.00000
     27     -25.1123      2.00000
     28     -25.0336      2.00000
     29     -25.0036      2.00000
     30     -24.9872      2.00000
     31     -24.9682      2.00000
     32     -24.9514      2.00000
     33     -24.8575      2.00000
     34     -24.8149      2.00000
     35     -24.4146      2.00000
     36     -24.3432      2.00000
     37     -24.2130      2.00000
     38     -24.1592      2.00000
     39     -24.1482      2.00000
     40     -24.1095      2.00000
     41     -24.0883      2.00000
     42     -24.0178      2.00000
     43     -23.9470      2.00000
     44     -21.1307      2.00000
     45     -21.1076      2.00000
     46     -21.0986      2.00000
     47     -21.0874      2.00000
     48     -21.0388      2.00000
     49     -21.0271      2.00000
     50     -20.9882      2.00000
     51     -20.8722      2.00000
     52     -20.8529      2.00000
     53     -20.7202      2.00000
     54     -20.7111      2.00000
     55     -20.6138      2.00000
     56     -20.5723      2.00000
     57     -20.5389      2.00000
     58     -20.5330      2.00000
     59     -20.5108      2.00000
     60     -20.5017      2.00000
     61     -20.4954      2.00000
     62       4.3168      2.00000
     63       4.8779      2.00000
     64       5.0240      2.00000
     65       5.3957      2.00000
     66       5.7708      2.00000
     67       5.9547      2.00000
     68       6.1454      2.00000
     69       6.6789      2.00000
     70       6.8972      2.00000
     71       6.9206      2.00000
     72       6.9573      2.00000
     73       6.9958      2.00000
     74       7.0465      2.00000
     75       7.1605      2.00000
     76       7.1921      2.00000
     77       7.2171      2.00000
     78       7.2781      2.00000
     79       7.3405      2.00000
     80       7.3849      2.00000
     81       7.4035      2.00000
     82       7.6873      2.00000
     83       7.6942      2.00000
     84       7.7648      2.00000
     85       7.8455      2.00000
     86       7.8795      2.00000
     87       7.9068      2.00000
     88       7.9558      2.00000
     89       7.9649      2.00000
     90       8.0109      2.00000
     91       8.0366      2.00000
     92       8.0592      2.00000
     93       8.1055      2.00000
     94       8.1333      2.00000
     95       8.1854      2.00000
     96       8.1962      2.00000
     97       8.2273      2.00000
     98       8.2554      2.00000
     99       8.2877      2.00000
    100       8.3092      2.00000
    101       8.3313      2.00000
    102       8.3965      2.00000
    103       8.4512      2.00000
    104       8.4935      2.00000
    105       8.5186      2.00000
    106       8.5517      2.00000
    107       8.5936      2.00000
    108       8.6428      2.00000
    109       9.0268      2.00000
    110      11.6438      0.00000
    111      11.7686      0.00000
    112      11.8146      0.00000
    113      11.9463      0.00000
    114      11.9814      0.00000
    115      12.0634      0.00000
    116      12.0810      0.00000
    117      12.1373      0.00000
    118      12.2193      0.00000
    119      12.2544      0.00000
    120      12.3239      0.00000
    121      12.3740      0.00000
    122      12.5114      0.00000
    123      12.5718      0.00000
    124      12.5765      0.00000
    125      12.6575      0.00000
    126      12.6904      0.00000
    127      12.7844      0.00000
    128      12.8434      0.00000


--------------------------------------------------------------------------------------------------------


 soft charge-density along one line, spin component           1
         0         1         2         3         4         5         6         7         8         9
 total charge-density along one line
 
 pseudopotential strength for first ion, spin component:           1
  5.745 -20.256   0.000   0.001  -0.000  -0.001  -0.002   0.000
-20.256   9.176   0.000   0.001  -0.000  -0.000  -0.000   0.000
  0.000   0.000  -9.751   0.001  -0.000   5.982  -0.001   0.000
  0.001   0.001   0.001  -9.750  -0.002  -0.001   5.982   0.002
 -0.000  -0.000  -0.000  -0.002  -9.751   0.000   0.002   5.982
 -0.001  -0.000   5.982  -0.001   0.000   7.956   0.001  -0.000
 -0.002  -0.000  -0.001   5.982   0.002   0.001   7.956  -0.002
  0.000   0.000   0.000   0.002   5.982  -0.000  -0.002   7.956
 -0.000  -0.000  -0.000   0.000   0.000   0.000  -0.001  -0.000
  0.001   0.000   0.001   0.000   0.000  -0.002  -0.000  -0.001
  0.000  -0.000  -0.000   0.001   0.000   0.000  -0.001  -0.000
 -0.001  -0.001   0.000  -0.000   0.001  -0.001   0.000  -0.002
  0.000  -0.000  -0.000  -0.000  -0.000   0.000   0.000   0.000
 -0.000  -0.000  -0.000   0.000   0.000   0.000  -0.001  -0.000
  0.001   0.000   0.001   0.000   0.000  -0.002  -0.000  -0.001
  0.000  -0.000  -0.000   0.001   0.000   0.000  -0.001  -0.000
 -0.002  -0.001   0.000  -0.000   0.001  -0.001   0.000  -0.002
  0.000  -0.000  -0.000  -0.000  -0.000   0.000   0.000   0.000
 total augmentation occupancy for first ion, spin component:           1
  1.995  -0.047   0.000  -0.000  -0.000   0.000  -0.001  -0.000   0.000   0.007  -0.000  -0.008  -0.000  -0.000  -0.006  -0.000
 -0.047   1.338   0.000  -0.003  -0.000   0.000  -0.000  -0.000  -0.005   0.016   0.013  -0.014   0.019   0.003  -0.001  -0.006
  0.000   0.000   1.996  -0.000  -0.000  -0.030   0.001  -0.000  -0.001  -0.013  -0.001  -0.009  -0.001   0.001   0.008   0.001
 -0.000  -0.003  -0.000   1.996   0.000   0.001  -0.031  -0.001  -0.008   0.001  -0.002  -0.001  -0.000   0.005  -0.000   0.002
 -0.000  -0.000  -0.000   0.000   1.996  -0.000  -0.001  -0.031   0.001  -0.008   0.001  -0.013  -0.001  -0.001   0.005  -0.000
  0.000   0.000  -0.030   0.001  -0.000   0.066  -0.002   0.000   0.001   0.019   0.001   0.010   0.001   0.000  -0.012  -0.000
 -0.001  -0.000   0.001  -0.031  -0.001  -0.002   0.070   0.002   0.009  -0.000  -0.007   0.000   0.000  -0.005  -0.000   0.002
 -0.000  -0.000  -0.000  -0.001  -0.031   0.000   0.002   0.070  -0.001   0.009  -0.000   0.019   0.001  -0.000  -0.005   0.000
  0.000  -0.005  -0.001  -0.008   0.001   0.001   0.009  -0.001   3.330   0.011  -0.006  -0.022  -0.001  -1.397  -0.017   0.003
  0.007   0.016  -0.013   0.001  -0.008   0.019  -0.000   0.009   0.011   3.327   0.031  -0.013  -0.049  -0.016  -1.397  -0.013
 -0.000   0.013  -0.001  -0.002   0.001   0.001  -0.007  -0.000  -0.006   0.031   2.674  -0.029  -0.015   0.003  -0.013  -1.213
 -0.008  -0.014  -0.009  -0.001  -0.013   0.010   0.000   0.019  -0.022  -0.013  -0.029   3.302  -0.051   0.020   0.008   0.012
 -0.000   0.019  -0.001  -0.000  -0.001   0.001   0.000   0.001  -0.001  -0.049  -0.015  -0.051   2.646   0.000   0.020   0.009
 -0.000   0.003   0.001   0.005  -0.001   0.000  -0.005  -0.000  -1.397  -0.016   0.003   0.020   0.000   0.597   0.011  -0.002
 -0.006  -0.001   0.008  -0.000   0.005  -0.012  -0.000  -0.005  -0.017  -1.397  -0.013   0.008   0.020   0.011   0.599   0.005
 -0.000  -0.006   0.001   0.002  -0.000  -0.000   0.002   0.000   0.003  -0.013  -1.213   0.012   0.009  -0.002   0.005   0.558
  0.006  -0.000   0.005   0.000   0.008  -0.005   0.000  -0.013   0.020   0.008   0.012  -1.392   0.021  -0.012  -0.004  -0.005
 -0.000  -0.009   0.001   0.000   0.001  -0.000  -0.000  -0.001   0.000   0.021   0.009   0.022  -1.198  -0.000  -0.009  -0.005


------------------------ aborting loop because EDIFF is reached ----------------------------------------


    CHARGE:  cpu time      0.0867: real time      0.0871
    FORLOC:  cpu time      0.0005: real time      0.0005
    FORNL :  cpu time      0.8116: real time      0.8143
    STRESS:  cpu time      0.9854: real time      0.9886
    FORCOR:  cpu time      0.0046: real time      0.0047
    FORHAR:  cpu time      0.0014: real time      0.0014
    MIXING:  cpu time      0.0007: real time      0.0007
    OFIELD:  cpu time      0.0000: real time      0.0000

  FORCE on cell =-STRESS in cart. coord.  units (eV):
  Direction    XX          YY          ZZ          XY          YZ          ZX
  --------------------------------------------------------------------------------------
  Alpha Z  1755.12880  1755.12880  1755.12880
  Ewald   -7248.91890 -7296.82461 -7249.45600     2.10768     4.21537    21.07683
  Hartree  1266.10803  1218.89952  1265.38997     1.58443     4.36256    19.28234
  E(xc)    -960.12171  -960.09364  -960.13885    -0.00152    -0.01899    -0.03417
  Local    1577.42122  1670.96284  1577.12334    -3.41727    -7.50672   -38.99217
  n-local  -303.51117  -303.07775  -300.89313     0.15883    -0.86271    -0.30205
  augment   542.23453   542.38303   542.37590    -0.07979    -0.15512    -0.24944
  Kinetic  3347.39316  3348.84853  3346.71437    -0.31034     0.62462    -0.34471
  Fock        0.00000     0.00000     0.00000     0.00000     0.00000     0.00000
  -------------------------------------------------------------------------------------
  Total     -24.26604   -23.77328   -23.75559     0.04201     0.65900     0.43664
  in kB    -136.46830  -133.69713  -133.59764     0.23626     3.70611     2.45557
  external pressure =     -134.59 kB  Pullay stress =        0.00 kB


 VOLUME and BASIS-vectors are now :
 -----------------------------------------------------------------------------
  energy-cutoff  :      250.00
  volume of cell :      284.89
      direct lattice vectors                 reciprocal lattice vectors
     6.580000000  0.000000000  0.000000000     0.151975684  0.000000000  0.000000000
     0.000000000  6.580000000  0.000000000     0.000000000  0.151975684  0.000000000
     0.000000000  0.000000000  6.580000000     0.000000000  0.000000000  0.151975684

  length of vectors
     6.580000000  6.580000000  6.580000000     0.151975684  0.151975684  0.151975684


 FORCES acting on ions
    electron-ion (+dipol)            ewald-force                    non-local-force                 convergence-correction
 -----------------------------------------------------------------------------------------------
   0.204E+02 -.204E+02 0.540E+00   -.204E+02 0.204E+02 0.560E-13   0.109E-01 -.138E-01 -.276E+00   -.160E-03 -.263E-03 -.603E-05
   0.105E+02 -.721E+02 0.104E+02   -.102E+02 0.714E+02 -.102E+02   -.769E-01 -.405E-01 0.525E-01   0.112E-03 -.507E-04 -.469E-04
   0.204E+02 0.204E+02 -.550E+00   -.204E+02 -.204E+02 -.142E-12   0.116E-01 0.102E-01 0.304E+00   -.165E-03 0.267E-03 -.137E-03
   -.105E+02 -.722E+02 0.104E+02   0.102E+02 0.714E+02 -.102E+02   0.952E-01 0.917E-01 0.244E-01   -.125E-03 -.276E-04 -.391E-04
   -.204E+02 -.204E+02 -.522E+00   0.204E+02 0.204E+02 -.142E-12   0.157E-02 -.100E-01 0.270E+00   0.151E-03 -.264E-03 -.162E-04
   0.105E+02 0.721E+02 0.104E+02   -.102E+02 -.714E+02 -.102E+02   -.105E+00 -.416E-01 0.304E-01   0.138E-03 0.475E-04 -.341E-04
   -.220E+02 0.220E+02 0.560E+00   0.220E+02 -.220E+02 -.297E-12   0.641E-02 -.109E-01 -.220E+00   0.169E-03 0.279E-03 0.111E-03
   -.112E+02 0.772E+02 0.110E+02   0.110E+02 -.769E+02 -.110E+02   0.156E-01 0.129E+00 0.101E+00   -.166E-03 0.271E-04 -.303E-04
   0.220E+02 0.220E+02 0.602E+00   -.220E+02 -.220E+02 -.202E-12   -.208E-02 -.145E-01 -.200E+00   -.163E-03 0.285E-03 0.102E-03
   -.173E+02 -.173E+02 0.573E+00   0.173E+02 0.173E+02 0.141E-12   0.402E-01 0.243E-01 -.149E+00   0.148E-03 -.216E-03 0.383E-04
   0.173E+02 -.173E+02 -.524E+00   -.173E+02 0.173E+02 -.142E-12   -.287E-01 0.277E-01 0.109E+00   -.133E-03 -.224E-03 -.684E-05
   -.892E+01 0.612E+02 -.894E+01   0.863E+01 -.604E+02 0.863E+01   0.659E-01 -.508E-01 -.672E-02   -.137E-03 0.153E-03 0.520E-04
   0.112E+02 -.774E+02 -.111E+02   -.110E+02 0.769E+02 0.110E+02   -.324E-02 -.208E-01 -.359E-01   0.195E-03 -.913E-04 0.514E-04
   -.112E+02 -.773E+02 -.111E+02   0.110E+02 0.769E+02 0.110E+02   -.329E-01 -.163E+00 -.595E-01   -.192E-03 -.122E-03 0.381E-04
   0.112E+02 0.773E+02 -.111E+02   -.110E+02 -.769E+02 0.110E+02   0.386E-01 0.121E+00 -.663E-01   0.190E-03 0.110E-03 0.353E-04
   -.220E+02 0.220E+02 -.438E+00   0.220E+02 -.220E+02 0.228E-12   0.228E-01 -.251E-01 -.228E-01   0.177E-03 0.278E-03 -.138E-03
 -----------------------------------------------------------------------------------------------
   -.604E-01 -.127E-01 0.146E+00   0.782E-13 0.568E-13 0.185E-12   0.603E-01 0.125E-01 -.146E+00   0.385E-04 0.189E-03 -.265E-04
 
 
 POSITION                                       TOTAL-FORCE (eV/Angst)
 -----------------------------------------------------------------------------------
      4.93500      1.64500      1.64500         0.014445     -0.009212      0.264469
      0.00000      0.00000      0.00000         0.193174     -0.724719      0.237148
      4.93500      4.93500      4.93500         0.022305      0.027380     -0.246286
      3.29000      0.00000      0.00000        -0.175769     -0.693638      0.231851
      1.64500      1.64500      4.93500        -0.019022      0.001044     -0.252297
      0.00000      3.29000      0.00000         0.172140      0.664601      0.222036
      1.64500      4.93500      1.64500        -0.008293      0.005594      0.339349
      3.29000      3.29000      0.00000        -0.175224      0.470424      0.112246
      4.93500      4.93500      1.64500         0.001243      0.006120      0.402930
      1.64500      1.64500      1.64500        -0.001177      0.004287      0.423576
      4.93500      1.64500      4.93500        -0.004022      0.017902     -0.415237
      3.29000      3.29000      3.29000        -0.221223      0.790762     -0.314647
      0.00000      0.00000      3.29000         0.191708     -0.586953     -0.176026
      3.29000      0.00000      3.29000        -0.204284     -0.579872     -0.180390
      0.00000      3.29000      3.29000         0.209372      0.594038     -0.187443
      1.64500      4.93500      4.93500         0.004627      0.012243     -0.461278
 -----------------------------------------------------------------------------------
    total drift:                               -0.000004      0.000017     -0.000026


--------------------------------------------------------------------------------------------------------



  FREE ENERGIE OF THE ION-ELECTRON SYSTEM (eV)
  ---------------------------------------------------
  free  energy   TOTEN  =      -181.97022468 eV

  energy  without entropy=     -181.96698223  energy(sigma->0) =     -181.96860345
 


--------------------------------------------------------------------------------------------------------


    POTLOK:  cpu time      0.0063: real time      0.0207


--------------------------------------------------------------------------------------------------------


     LOOP+:  cpu time    271.3908: real time    281.7564
    4ORBIT:  cpu time      0.0000: real time      0.0000

 total amount of memory used by VASP MPI-rank0    48253. kBytes
=======================================================================

   base      :      30000. kBytes
   nonl-proj :       8332. kBytes
   fftplans  :        456. kBytes
   grid      :        919. kBytes
   one-center:         31. kBytes
   wavefun   :       8515. kBytes
 
  
  
 General timing and accounting informations for this job:
 ========================================================
  
                  Total CPU time used (sec):      274.355
                            User time (sec):      268.935
                          System time (sec):        5.420
                         Elapsed time (sec):      286.396
  
                   Maximum memory used (kb):       90424.
                   Average memory used (kb):          N/A
  
                          Minor page faults:         8575
                          Major page faults:            0
                 Voluntary context switches:          260
