 vasp.6.3.1 04May22 (build Jul 26 2022 04:02:40) complex                        
  
 executed on             LinuxIFC date 2023.11.30  01:50:49
 running on   48 total cores
 distrk:  each k-point on   48 cores,    1 groups
 distr:  one band on NCORE=  12 cores,    4 groups


--------------------------------------------------------------------------------------------------------


 INCAR:
   ISTART = 0
   NWRITE = 2
   PREC = Accurate
   ENCUT = 250
   GGA = PE
   NSW = 0
   ISIF = 2
   ISYM = 2
   NBLOCK = 1
   KBLOCK = 1
   IBRION = -1
   NELM = 80
   EDIFF = 1E-08
   EDIFFG = -0.01
   ALGO = Normal
   LDIAG = .TRUE.
   LREAL = .FALSE.
   ISMEAR = 0
   SIGMA = 0.02
   ICHARG = 2
   LPLANE = .TRUE.
   NPAR = 4
   LSCALU = .FALSE.
   NSIM = 4
   LWAVE = .FALSE.
   LCHARG = .FALSE.
   ICORELEVEL = 1

 POTCAR:    PAW_PBE Nb_sv 25May2007               
 POTCAR:    PAW_PBE Mo_sv 02Feb2006               
 POTCAR:    PAW_PBE Ta_pv 07Sep2000               
 POTCAR:    PAW_PBE W_sv 04Sep2015                
 POTCAR:    PAW_PBE Nb_sv 25May2007               
   SHA256 =  0e8fc07c9fcd1164cf2ade22d0399fd28f85e91cd773dfa6cf24839a48c95e24 Nb_sv/POTCAR          
   COPYR  = (c) Copyright 25May2007 Georg Kresse                                                    
   COPYR  = This file is part of the software VASP. Any use, copying, and all other rights are regul
   COPYR  = If you do not have a valid VASP license, you may not use, copy or distribute this file. 
   VRHFIN =Nb: 4p5s4d                                                                               
   LEXCH  = PE                                                                                      
   EATOM  =  1555.1913 eV,  114.3033 Ry                                                             
                                                                                                    
   TITEL  = PAW_PBE Nb_sv 25May2007                                                                 
   LULTRA =        F    use ultrasoft PP ?                                                          
   IUNSCR =        1    unscreen: 0-lin 1-nonlin 2-no                                               
   RPACOR =    1.800    partial core radius                                                         
   POMASS =   92.910; ZVAL   =   13.000    mass and valenz                                          
   RCORE  =    2.400    outmost cutoff radius                                                       
   RWIGS  =    2.400; RWIGS  =    1.270    wigner-seitz radius (au A)                               
   ENMAX  =  293.235; ENMIN  =  219.927 eV                                                          
   ICORE  =        3    local potential                                                             
   LCOR   =        T    correct aug charges                                                         
   LPAW   =        T    paw PP                                                                      
   EAUG   =  455.659                                                                                
   DEXC   =    0.000                                                                                
   RMAX   =    2.456    core radius for proj-oper                                                   
   RAUG   =    1.300    factor for augmentation sphere                                              
   RDEP   =    2.451    radius for radial grids                                                     
   RDEPT  =    1.956    core radius for aug-charge                                                  
                                                                                                    
   Atomic configuration                                                                             
   11 entries                                                                                       
     n  l   j            E        occ.                                                              
     1  0  0.50    -18805.2457   2.0000                                                             
     2  0  0.50     -2630.2869   2.0000                                                             
     2  1  1.50     -2348.4046   6.0000                                                             
     3  0  0.50      -438.8757   2.0000                                                             
     3  1  1.50      -346.7588   6.0000                                                             
     3  2  2.50      -196.2560  10.0000                                                             
     4  0  0.50       -58.3859   2.0000                                                             
     5  0  0.50        -3.9816   1.0000                                                             
     4  1  1.50       -34.5141   6.0000                                                             
     4  2  2.50        -3.0408   4.0000                                                             
     4  3  2.50        -1.3606   0.0000                                                             
   Description                                                                                      
     l       E           TYP  RCUT    TYP  RCUT                                                     
     0    -58.3859094     23  2.200                                                                 
     0     -3.9816262     23  2.200                                                                 
     1    -34.5140738     23  2.200                                                                 
     1     13.6058260     23  2.200                                                                 
     2     -3.0408010     23  2.200                                                                 
     2     -0.1283038     23  2.200                                                                 
     3     -1.3605826     23  2.400                                                                 
  local pseudopotential read in
  partial core-charges read in
  partial kinetic energy density read in
  atomic valenz-charges read in
  non local Contribution for L=           0  read in
    real space projection operators read in
  non local Contribution for L=           0  read in
    real space projection operators read in
  non local Contribution for L=           1  read in
    real space projection operators read in
  non local Contribution for L=           1  read in
    real space projection operators read in
  non local Contribution for L=           2  read in
    real space projection operators read in
  non local Contribution for L=           2  read in
    real space projection operators read in
    PAW grid and wavefunctions read in
 
   number of l-projection  operators is LMAX  =           6
   number of lm-projection operators is LMMAX =          18
 
 POTCAR:    PAW_PBE Mo_sv 02Feb2006               
   SHA256 =  2731df97e41766cc617548c5a8267718fdef1f509ac6bafa01e745abea2bdfaa Mo_sv/POTCAR          
   COPYR  = (c) Copyright 02Feb2006 Georg Kresse                                                    
   COPYR  = This file is part of the software VASP. Any use, copying, and all other rights are regul
   COPYR  = If you do not have a valid VASP license, you may not use, copy or distribute this file. 
   VRHFIN =Mo: 4p5s4d                                                                               
   LEXCH  = PE                                                                                      
   EATOM  =  1862.2866 eV,  136.8742 Ry                                                             
                                                                                                    
   TITEL  = PAW_PBE Mo_sv 02Feb2006                                                                 
   LULTRA =        F    use ultrasoft PP ?                                                          
   IUNSCR =        1    unscreen: 0-lin 1-nonlin 2-no                                               
   RPACOR =    2.200    partial core radius                                                         
   POMASS =   95.940; ZVAL   =   14.000    mass and valenz                                          
   RCORE  =    2.500    outmost cutoff radius                                                       
   RWIGS  =    2.750; RWIGS  =    1.455    wigner-seitz radius (au A)                               
   ENMAX  =  242.676; ENMIN  =  182.007 eV                                                          
   ICORE  =        3    local potential                                                             
   LCOR   =        T    correct aug charges                                                         
   LPAW   =        T    paw PP                                                                      
   EAUG   =  446.014                                                                                
   DEXC   =    0.000                                                                                
   RMAX   =    2.563    core radius for proj-oper                                                   
   RAUG   =    1.300    factor for augmentation sphere                                              
   RDEP   =    2.641    radius for radial grids                                                     
   RDEPT  =    2.031    core radius for aug-charge                                                  
                                                                                                    
   Atomic configuration                                                                             
   11 entries                                                                                       
     n  l   j            E        occ.                                                              
     1  0  0.50    -19819.0341   2.0000                                                             
     2  0  0.50     -2799.0127   2.0000                                                             
     2  1  1.50     -2502.0276   6.0000                                                             
     3  0  0.50      -476.4449   2.0000                                                             
     3  1  1.50      -379.1496   6.0000                                                             
     3  2  2.50      -220.9367  10.0000                                                             
     4  0  0.50       -64.3378   2.0000                                                             
     5  0  0.50        -4.0862   1.0000                                                             
     4  1  1.50       -38.4773   6.0000                                                             
     4  2  2.50        -3.7535   5.0000                                                             
     4  3  2.50        -1.3606   0.0000                                                             
   Description                                                                                      
     l       E           TYP  RCUT    TYP  RCUT                                                     
     0    -64.3377829     23  2.100                                                                 
     0     -4.0861640     23  2.400                                                                 
     1    -38.4772993     23  2.100                                                                 
     1     13.6058260     23  2.100                                                                 
     2     -3.7534941     23  2.400                                                                 
     2     -5.1140767     23  2.400                                                                 
     3     -4.0817478     23  2.500                                                                 
  local pseudopotential read in
  partial core-charges read in
  partial kinetic energy density read in
  atomic valenz-charges read in
  non local Contribution for L=           0  read in
    real space projection operators read in
  non local Contribution for L=           0  read in
    real space projection operators read in
  non local Contribution for L=           1  read in
    real space projection operators read in
  non local Contribution for L=           1  read in
    real space projection operators read in
  non local Contribution for L=           2  read in
    real space projection operators read in
  non local Contribution for L=           2  read in
    real space projection operators read in
    PAW grid and wavefunctions read in
 
   number of l-projection  operators is LMAX  =           6
   number of lm-projection operators is LMMAX =          18
 
 POTCAR:    PAW_PBE Ta_pv 07Sep2000               
   SHA256 =  00d0a14a36c127416459414afb8617d9754996fffa60a2465888e660b20a452f Ta_pv/POTCAR          
   COPYR  = (c) Copyright 07Sep2000 Georg Kresse                                                    
   COPYR  = This file is part of the software VASP. Any use, copying, and all other rights are regul
   COPYR  = If you do not have a valid VASP license, you may not use, copy or distribute this file. 
   VRHFIN =Ta:  5p6s5d                                                                              
   LEXCH  = PE                                                                                      
   EATOM  =  1047.1984 eV,   76.9669 Ry                                                             
                                                                                                    
   TITEL  = PAW_PBE Ta_pv 07Sep2000                                                                 
   LULTRA =        F    use ultrasoft PP ?                                                          
   IUNSCR =        1    unscreen: 0-lin 1-nonlin 2-no                                               
   RPACOR =    2.330    partial core radius                                                         
   POMASS =  180.948; ZVAL   =   11.000    mass and valenz                                          
   RCORE  =    2.500    outmost cutoff radius                                                       
   RWIGS  =    2.840; RWIGS  =    1.503    wigner-seitz radius (au A)                               
   ENMAX  =  223.667; ENMIN  =  167.750 eV                                                          
   RCLOC  =    2.205    cutoff for local pot                                                        
   LCOR   =        T    correct aug charges                                                         
   LPAW   =        T    paw PP                                                                      
   EAUG   =  377.421                                                                                
   DEXC   =    0.000                                                                                
   RMAX   =    2.551    core radius for proj-oper                                                   
   RAUG   =    1.300    factor for augmentation sphere                                              
   RDEP   =    2.526    radius for radial grids                                                     
   RDEPT  =    2.132    core radius for aug-charge                                                  
                                                                                                    
   Atomic configuration                                                                             
   15 entries                                                                                       
     n  l   j            E        occ.                                                              
     1  0  0.50    -67341.2801   2.0000                                                             
     2  0  0.50    -11566.9369   2.0000                                                             
     2  1  1.50    -10134.1175   6.0000                                                             
     3  0  0.50     -2648.5614   2.0000                                                             
     3  1  1.50     -2222.6006   6.0000                                                             
     3  2  2.50     -1726.3114  10.0000                                                             
     4  0  0.50      -538.6957   2.0000                                                             
     4  1  1.50      -399.0125   6.0000                                                             
     4  2  2.50      -220.3955  10.0000                                                             
     4  3  3.50       -23.0371  14.0000                                                             
     5  0  0.50       -71.2900   2.0000                                                             
     5  1  1.50       -37.8224   6.0000                                                             
     5  2  2.50        -2.6455   4.0000                                                             
     6  0  0.50        -4.9623   1.0000                                                             
     5  3  2.50        -1.3606   0.0000                                                             
   Description                                                                                      
     l       E           TYP  RCUT    TYP  RCUT                                                     
     1    -37.8224449     23  2.500                                                                 
     1      1.3605826     23  2.500                                                                 
     2     -2.6454718     23  2.500                                                                 
     2     -0.6258570     23  2.500                                                                 
     0     -4.9622674     23  2.500                                                                 
     0      4.7531427     23  2.500                                                                 
  local pseudopotential read in
  partial core-charges read in
  partial kinetic energy density read in
  atomic valenz-charges read in
  non local Contribution for L=           1  read in
    real space projection operators read in
  non local Contribution for L=           1  read in
    real space projection operators read in
  non local Contribution for L=           2  read in
    real space projection operators read in
  non local Contribution for L=           2  read in
    real space projection operators read in
  non local Contribution for L=           0  read in
    real space projection operators read in
  non local Contribution for L=           0  read in
    real space projection operators read in
    PAW grid and wavefunctions read in
 
   number of l-projection  operators is LMAX  =           6
   number of lm-projection operators is LMMAX =          18
 
 POTCAR:    PAW_PBE W_sv 04Sep2015                
   SHA256 =  931c2d770f65867ef30f3db3421922900fc0890ebac5c3e12f63b6a2064023d7 W_sv/POTCAR           
   COPYR  = (c) Copyright 04Sep2015 Georg Kresse                                                    
   COPYR  = This file is part of the software VASP. Any use, copying, and all other rights are regul
   COPYR  = If you do not have a valid VASP license, you may not use, copy or distribute this file. 
   VRHFIN =W : 5p6s5d                                                                               
   LEXCH  = PE                                                                                      
   EATOM  =  1865.5791 eV,  137.1162 Ry                                                             
                                                                                                    
   TITEL  = PAW_PBE W_sv 04Sep2015                                                                  
   LULTRA =        F    use ultrasoft PP ?                                                          
   IUNSCR =        1    unscreen: 0-lin 1-nonlin 2-no                                               
   RPACOR =    2.330    partial core radius                                                         
   POMASS =  183.850; ZVAL   =   14.000    mass and valenz                                          
   RCORE  =    2.500    outmost cutoff radius                                                       
   RWIGS  =    2.750; RWIGS  =    1.455    wigner-seitz radius (au A)                               
   ENMAX  =  223.057; ENMIN  =  167.293 eV                                                          
   ICORE  =        3    local potential                                                             
   LCOR   =        T    correct aug charges                                                         
   LPAW   =        T    paw PP                                                                      
   EAUG   =  373.438                                                                                
   DEXC   =    0.000                                                                                
   RMAX   =    2.565    core radius for proj-oper                                                   
   RAUG   =    1.300    factor for augmentation sphere                                              
   RDEP   =    2.539    radius for radial grids                                                     
   RDEPT  =    2.126    core radius for aug-charge                                                  
                                                                                                    
   Atomic configuration                                                                             
   15 entries                                                                                       
     n  l   j            E        occ.                                                              
     1  0  0.50    -69465.5834   2.0000                                                             
     2  0  0.50    -11986.2640   2.0000                                                             
     2  1  1.50    -10479.8613   6.0000                                                             
     3  0  0.50     -2759.0756   2.0000                                                             
     3  1  1.50     -2313.1855   6.0000                                                             
     3  2  2.50     -1801.1183  10.0000                                                             
     4  0  0.50      -567.6789   2.0000                                                             
     4  1  1.50      -421.4692   6.0000                                                             
     4  2  2.50      -236.3471  10.0000                                                             
     4  3  3.50       -31.2665  14.0000                                                             
     5  0  0.50       -77.1084   2.0000                                                             
     6  0  0.50        -5.1438   1.0000                                                             
     5  1  1.50       -41.3856   6.0000                                                             
     5  2  2.50        -3.3185   5.0000                                                             
     5  3  2.50        -1.3606   0.0000                                                             
   Description                                                                                      
     l       E           TYP  RCUT    TYP  RCUT                                                     
     0    -77.1084470     23  2.100                                                                 
     0     -5.1437956     23  2.300                                                                 
     1    -41.3855615     23  2.500                                                                 
     1     -2.7211652     23  2.500                                                                 
     2     -3.3185025     23  2.500                                                                 
     2     -1.5965151     23  2.500                                                                 
     3     -1.3605826     23  2.500                                                                 
  local pseudopotential read in
  partial core-charges read in
  partial kinetic energy density read in
  kinetic energy density of atom read in
  atomic valenz-charges read in
  non local Contribution for L=           0  read in
    real space projection operators read in
  non local Contribution for L=           0  read in
    real space projection operators read in
  non local Contribution for L=           1  read in
    real space projection operators read in
  non local Contribution for L=           1  read in
    real space projection operators read in
  non local Contribution for L=           2  read in
    real space projection operators read in
  non local Contribution for L=           2  read in
    real space projection operators read in
    PAW grid and wavefunctions read in
 
   number of l-projection  operators is LMAX  =           6
   number of lm-projection operators is LMMAX =          18
 
  PAW_PBE Nb_sv 25May2007               :
 energy of atom  1       EATOM=-1555.1913
 kinetic energy error for atom=    0.2155 (will be added to EATOM!!)
  PAW_PBE Mo_sv 02Feb2006               :
 energy of atom  2       EATOM=-1862.2866
 kinetic energy error for atom=    0.1102 (will be added to EATOM!!)
  PAW_PBE Ta_pv 07Sep2000               :
 energy of atom  3       EATOM=-1047.1984
 kinetic energy error for atom=    0.0394 (will be added to EATOM!!)
  PAW_PBE W_sv 04Sep2015                :
 energy of atom  4       EATOM=-1865.5791
 kinetic energy error for atom=    0.0589 (will be added to EATOM!!)
 
 
 POSCAR: Nb-Mo-Ta-W alloy
  positions in direct lattice
  No initial velocities read in
 exchange correlation table for  LEXCH =        8
   RHO(1)=    0.500       N(1)  =     2000
   RHO(2)=  100.500       N(2)  =     4000
 


--------------------------------------------------------------------------------------------------------


 ion  position               nearest neighbor table
   1  0.250  0.250  0.250-   2 2.85   5 2.85   6 2.85   8 2.85   9 2.85  10 2.85  11 2.85  16 2.85

   2  0.000  0.000  0.000-   1 2.85   3 2.85   4 2.85   7 2.85  12 2.85  13 2.85  14 2.85  15 2.85
                            11 3.29  11 3.29
   3  0.750  0.250  0.750-   2 2.85   5 2.85   6 2.85   8 2.85   9 2.85  10 2.85  11 2.85  16 2.85
                            13 3.29  13 3.29
   4  0.750  0.250  0.250-   2 2.85   5 2.85   6 2.85   8 2.85   9 2.85  10 2.85  11 2.85  16 2.85
                            12 3.29  12 3.29
   5  0.000  0.500  0.500-   1 2.85   3 2.85   4 2.85   7 2.85  12 2.85  13 2.85  14 2.85  15 2.85
                            10 3.29  11 3.29  11 3.29  10 3.29
   6  0.500  0.000  0.000-   1 2.85   3 2.85   4 2.85   7 2.85  12 2.85  13 2.85  14 2.85  15 2.85
                             8 3.29   9 3.29   8 3.29   9 3.29
   7  0.250  0.750  0.250-   2 2.85   5 2.85   6 2.85   8 2.85   9 2.85  10 2.85  11 2.85  16 2.85
                            15 3.29  12 3.29  15 3.29  12 3.29
   8  0.500  0.000  0.500-   1 2.85   3 2.85   4 2.85   7 2.85  12 2.85  13 2.85  14 2.85  15 2.85
                             6 3.29  10 3.29  16 3.29   6 3.29  10 3.29  16 3.29
   9  0.500  0.500  0.000-   1 2.85   3 2.85   4 2.85   7 2.85  12 2.85  13 2.85  14 2.85  15 2.85
                            10 3.29  11 3.29   6 3.29  10 3.29   6 3.29  11 3.29
  10  0.500  0.500  0.500-   1 2.85   3 2.85   4 2.85   7 2.85  12 2.85  13 2.85  14 2.85  15 2.85
                             8 3.29   9 3.29   5 3.29   9 3.29   8 3.29   5 3.29
  11  0.000  0.500  0.000-   1 2.85   3 2.85   4 2.85   7 2.85  12 2.85  13 2.85  14 2.85  15 2.85
                             2 3.29   9 3.29   5 3.29   5 3.29   2 3.29   9 3.29
  12  0.750  0.750  0.250-   2 2.85   5 2.85   6 2.85   8 2.85   9 2.85  10 2.85  11 2.85  16 2.85
                             7 3.29  13 3.29   4 3.29  13 3.29   4 3.29   7 3.29
  13  0.750  0.750  0.750-   2 2.85   5 2.85   6 2.85   8 2.85   9 2.85  10 2.85  11 2.85  16 2.85
                            12 3.29  15 3.29   3 3.29  12 3.29   3 3.29  15 3.29
  14  0.250  0.250  0.750-   2 2.85   5 2.85   6 2.85   8 2.85   9 2.85  10 2.85  11 2.85  16 2.85
                            15 3.29  15 3.29
  15  0.250  0.750  0.750-   2 2.85   5 2.85   6 2.85   8 2.85   9 2.85  10 2.85  11 2.85  16 2.85
                            13 3.29  14 3.29   7 3.29   7 3.29  14 3.29  13 3.29
  16  0.000  0.000  0.500-   1 2.85   3 2.85   4 2.85   7 2.85  12 2.85  13 2.85  14 2.85  15 2.85
                             8 3.29   8 3.29
 
  LATTYP: Found a simple cubic cell.
 ALAT       =     6.5800000000
  
  Lattice vectors:
  
 A1 = (   6.5800000000,   0.0000000000,   0.0000000000)
 A2 = (   0.0000000000,   6.5800000000,   0.0000000000)
 A3 = (   0.0000000000,   0.0000000000,   6.5800000000)


Analysis of symmetry for initial positions (statically):
=====================================================================
 Subroutine PRICEL returns:
 Original cell was already a primitive cell.
 

 Routine SETGRP: Setting up the symmetry group for a 
 simple cubic supercell.


 Subroutine GETGRP returns: Found  1 space group operations
 (whereof  1 operations were pure point group operations)
 out of a pool of 48 trial point group operations.


The static configuration has the point symmetry C_1 .


Analysis of symmetry for dynamics (positions and initial velocities):
=====================================================================
 Subroutine PRICEL returns:
 Original cell was already a primitive cell.
 

 Routine SETGRP: Setting up the symmetry group for a 
 simple cubic supercell.


 Subroutine GETGRP returns: Found  1 space group operations
 (whereof  1 operations were pure point group operations)
 out of a pool of 48 trial point group operations.


The dynamic configuration has the point symmetry C_1 .


 Subroutine INISYM returns: Found  1 space group operations
 (whereof  1 operations are pure point group operations),
 and found     1 'primitive' translations


----------------------------------------------------------------------------------------

                                     Primitive cell                                     

  volume of cell :     284.8903

  direct lattice vectors                    reciprocal lattice vectors
     6.580000000  0.000000000  0.000000000     0.151975684  0.000000000  0.000000000
     0.000000000  6.580000000  0.000000000     0.000000000  0.151975684  0.000000000
     0.000000000  0.000000000  6.580000000     0.000000000  0.000000000  0.151975684

  length of vectors
     6.580000000  6.580000000  6.580000000     0.151975684  0.151975684  0.151975684

  position of ions in fractional coordinates (direct lattice)
     0.250000000  0.250000000  0.250000000
     0.000000000  0.000000000  0.000000000
     0.750000000  0.250000000  0.750000000
     0.750000000  0.250000000  0.250000000
     0.000000000  0.500000000  0.500000000
     0.500000000  0.000000000  0.000000000
     0.250000000  0.750000000  0.250000000
     0.500000000  0.000000000  0.500000000
     0.500000000  0.500000000  0.000000000
     0.500000000  0.500000000  0.500000000
     0.000000000  0.500000000  0.000000000
     0.750000000  0.750000000  0.250000000
     0.750000000  0.750000000  0.750000000
     0.250000000  0.250000000  0.750000000
     0.250000000  0.750000000  0.750000000
     0.000000000  0.000000000  0.500000000

  ion indices of the primitive-cell ions
   primitive index   ion index
                 1           1
                 2           2
                 3           3
                 4           4
                 5           5
                 6           6
                 7           7
                 8           8
                 9           9
                10          10
                11          11
                12          12
                13          13
                14          14
                15          15
                16          16

----------------------------------------------------------------------------------------

 
 
 KPOINTS: K-Spacing Value to Generate K-Mesh: 0.03

Automatic generation of k-mesh.
 Grid dimensions read from file:
 generate k-points for:    5    5    5

 Generating k-lattice:

  Cartesian coordinates                     Fractional coordinates (reciprocal lattice)
     0.030395137  0.000000000  0.000000000     0.200000000  0.000000000  0.000000000
     0.000000000  0.030395137  0.000000000     0.000000000  0.200000000  0.000000000
     0.000000000  0.000000000  0.030395137     0.000000000  0.000000000  0.200000000

  Length of vectors
     0.030395137  0.030395137  0.030395137

  Shift w.r.t. Gamma in fractional coordinates (k-lattice)
     0.000000000  0.000000000  0.000000000

 
 Subroutine IBZKPT returns following result:
 ===========================================
 
 Found     63 irreducible k-points:
 
 Following reciprocal coordinates:
            Coordinates               Weight
  0.000000  0.000000  0.000000      1.000000
  0.200000  0.000000  0.000000      2.000000
  0.000000  0.200000  0.000000      2.000000
  0.000000  0.000000  0.200000      2.000000
  0.400000  0.000000  0.000000      2.000000
  0.000000  0.400000  0.000000      2.000000
  0.000000  0.000000  0.400000      2.000000
  0.200000  0.200000  0.000000      2.000000
  0.000000  0.200000  0.200000      2.000000
  0.200000  0.000000  0.200000      2.000000
 -0.200000  0.200000  0.000000      2.000000
 -0.200000  0.000000  0.200000      2.000000
  0.000000 -0.200000  0.200000      2.000000
  0.400000  0.200000  0.000000      2.000000
  0.000000  0.400000  0.200000      2.000000
  0.200000  0.000000  0.400000      2.000000
 -0.200000  0.400000  0.000000      2.000000
 -0.400000  0.000000  0.200000      2.000000
  0.000000  0.200000  0.400000      2.000000
  0.000000 -0.400000  0.200000      2.000000
 -0.200000  0.000000  0.400000      2.000000
  0.400000  0.000000  0.200000      2.000000
  0.000000 -0.200000  0.400000      2.000000
  0.400000 -0.200000  0.000000      2.000000
  0.200000  0.400000  0.000000      2.000000
  0.400000  0.400000  0.000000      2.000000
  0.000000  0.400000  0.400000      2.000000
  0.400000  0.000000  0.400000      2.000000
 -0.400000  0.400000  0.000000      2.000000
 -0.400000  0.000000  0.400000      2.000000
  0.000000 -0.400000  0.400000      2.000000
  0.200000  0.200000  0.200000      2.000000
 -0.200000  0.200000  0.200000      2.000000
 -0.200000 -0.200000  0.200000      2.000000
  0.200000 -0.200000  0.200000      2.000000
  0.400000  0.200000  0.200000      2.000000
  0.200000  0.400000  0.200000      2.000000
  0.200000  0.200000  0.400000      2.000000
 -0.200000  0.400000  0.200000      2.000000
 -0.400000  0.200000  0.200000      2.000000
 -0.200000  0.200000  0.400000      2.000000
 -0.400000 -0.200000  0.200000      2.000000
 -0.200000 -0.400000  0.200000      2.000000
 -0.200000 -0.200000  0.400000      2.000000
  0.200000 -0.400000  0.200000      2.000000
  0.400000 -0.200000  0.200000      2.000000
  0.200000 -0.200000  0.400000      2.000000
  0.400000  0.400000  0.200000      2.000000
  0.200000  0.400000  0.400000      2.000000
  0.400000  0.200000  0.400000      2.000000
 -0.400000  0.400000  0.200000      2.000000
 -0.400000  0.200000  0.400000      2.000000
 -0.200000  0.400000  0.400000      2.000000
 -0.400000 -0.400000  0.200000      2.000000
 -0.200000 -0.400000  0.400000      2.000000
 -0.400000 -0.200000  0.400000      2.000000
  0.400000 -0.400000  0.200000      2.000000
  0.400000 -0.200000  0.400000      2.000000
  0.200000 -0.400000  0.400000      2.000000
  0.400000  0.400000  0.400000      2.000000
 -0.400000  0.400000  0.400000      2.000000
 -0.400000 -0.400000  0.400000      2.000000
  0.400000 -0.400000  0.400000      2.000000
 
 Following cartesian coordinates:
            Coordinates               Weight
  0.000000  0.000000  0.000000      1.000000
  0.030395  0.000000  0.000000      2.000000
  0.000000  0.030395  0.000000      2.000000
  0.000000  0.000000  0.030395      2.000000
  0.060790  0.000000  0.000000      2.000000
  0.000000  0.060790  0.000000      2.000000
  0.000000  0.000000  0.060790      2.000000
  0.030395  0.030395  0.000000      2.000000
  0.000000  0.030395  0.030395      2.000000
  0.030395  0.000000  0.030395      2.000000
 -0.030395  0.030395  0.000000      2.000000
 -0.030395  0.000000  0.030395      2.000000
  0.000000 -0.030395  0.030395      2.000000
  0.060790  0.030395  0.000000      2.000000
  0.000000  0.060790  0.030395      2.000000
  0.030395  0.000000  0.060790      2.000000
 -0.030395  0.060790  0.000000      2.000000
 -0.060790  0.000000  0.030395      2.000000
  0.000000  0.030395  0.060790      2.000000
  0.000000 -0.060790  0.030395      2.000000
 -0.030395  0.000000  0.060790      2.000000
  0.060790  0.000000  0.030395      2.000000
  0.000000 -0.030395  0.060790      2.000000
  0.060790 -0.030395  0.000000      2.000000
  0.030395  0.060790  0.000000      2.000000
  0.060790  0.060790  0.000000      2.000000
  0.000000  0.060790  0.060790      2.000000
  0.060790  0.000000  0.060790      2.000000
 -0.060790  0.060790  0.000000      2.000000
 -0.060790  0.000000  0.060790      2.000000
  0.000000 -0.060790  0.060790      2.000000
  0.030395  0.030395  0.030395      2.000000
 -0.030395  0.030395  0.030395      2.000000
 -0.030395 -0.030395  0.030395      2.000000
  0.030395 -0.030395  0.030395      2.000000
  0.060790  0.030395  0.030395      2.000000
  0.030395  0.060790  0.030395      2.000000
  0.030395  0.030395  0.060790      2.000000
 -0.030395  0.060790  0.030395      2.000000
 -0.060790  0.030395  0.030395      2.000000
 -0.030395  0.030395  0.060790      2.000000
 -0.060790 -0.030395  0.030395      2.000000
 -0.030395 -0.060790  0.030395      2.000000
 -0.030395 -0.030395  0.060790      2.000000
  0.030395 -0.060790  0.030395      2.000000
  0.060790 -0.030395  0.030395      2.000000
  0.030395 -0.030395  0.060790      2.000000
  0.060790  0.060790  0.030395      2.000000
  0.030395  0.060790  0.060790      2.000000
  0.060790  0.030395  0.060790      2.000000
 -0.060790  0.060790  0.030395      2.000000
 -0.060790  0.030395  0.060790      2.000000
 -0.030395  0.060790  0.060790      2.000000
 -0.060790 -0.060790  0.030395      2.000000
 -0.030395 -0.060790  0.060790      2.000000
 -0.060790 -0.030395  0.060790      2.000000
  0.060790 -0.060790  0.030395      2.000000
  0.060790 -0.030395  0.060790      2.000000
  0.030395 -0.060790  0.060790      2.000000
  0.060790  0.060790  0.060790      2.000000
 -0.060790  0.060790  0.060790      2.000000
 -0.060790 -0.060790  0.060790      2.000000
  0.060790 -0.060790  0.060790      2.000000
 


--------------------------------------------------------------------------------------------------------




 Dimension of arrays:
   k-points           NKPTS =     63   k-points in BZ     NKDIM =     63   number of bands    NBANDS=    124
   number of dos      NEDOS =    301   number of ions     NIONS =     16
   non local maximal  LDIM  =      6   non local SUM 2l+1 LMDIM =     18
   total plane-waves  NPLWV =  46656
   max r-space proj   IRMAX =      1   max aug-charges    IRDMAX=   9546
   dimension x,y,z NGX =    36 NGY =   36 NGZ =   36
   dimension x,y,z NGXF=    72 NGYF=   72 NGZF=   72
   support grid    NGXF=    72 NGYF=   72 NGZF=   72
   ions per type =               5   3   5   3
   NGX,Y,Z   is equivalent  to a cutoff of   9.10,  9.10,  9.10 a.u.
   NGXF,Y,Z  is equivalent  to a cutoff of  18.19, 18.19, 18.19 a.u.

 SYSTEM =  unknown system                          
 POSCAR =  Nb-Mo-Ta-W alloy                        

 Startparameter for this run:
   NWRITE =      2    write-flag & timer
   PREC   = accura    normal or accurate (medium, high low for compatibility)
   ISTART =      0    job   : 0-new  1-cont  2-samecut
   ICHARG =      2    charge: 1-file 2-atom 10-const
   ISPIN  =      1    spin polarized calculation?
   LNONCOLLINEAR =      F non collinear calculations
   LSORBIT =      F    spin-orbit coupling
   INIWAV =      1    electr: 0-lowe 1-rand  2-diag
   LASPH  =      F    aspherical Exc in radial PAW
 Electronic Relaxation 1
   ENCUT  =  250.0 eV  18.37 Ry    4.29 a.u.   8.48  8.48  8.48*2*pi/ulx,y,z
   ENINI  =  250.0     initial cutoff
   ENAUG  =  455.7 eV  augmentation charge cutoff
   NELM   =     80;   NELMIN=  2; NELMDL= -5     # of ELM steps 
   EDIFF  = 0.1E-07   stopping-criterion for ELM
   LREAL  =      F    real-space projection
   NLSPLINE    = F    spline interpolate recip. space projectors
   LCOMPAT=      F    compatible to vasp.4.4
   GGA_COMPAT  = T    GGA compatible to vasp.4.4-vasp.4.6
   LMAXPAW     = -100 max onsite density
   LMAXMIX     =    2 max onsite mixed and CHGCAR
   VOSKOWN=      0    Vosko Wilk Nusair interpolation
   ROPT   =    0.00000   0.00000   0.00000   0.00000
 Ionic relaxation
   EDIFFG = -.1E-01   stopping-criterion for IOM
   NSW    =      0    number of steps for IOM
   NBLOCK =      1;   KBLOCK =      1    inner block; outer block 
   IBRION =     -1    ionic relax: 0-MD 1-quasi-New 2-CG
   NFREE  =      0    steps in history (QN), initial steepest desc. (CG)
   ISIF   =      2    stress and relaxation
   IWAVPR =     10    prediction:  0-non 1-charg 2-wave 3-comb
   ISYM   =      2    0-nonsym 1-usesym 2-fastsym
   LCORR  =      T    Harris-Foulkes like correction to forces

   POTIM  = 0.5000    time-step for ionic-motion
   TEIN   =    0.0    initial temperature
   TEBEG  =    0.0;   TEEND  =   0.0 temperature during run
   SMASS  =  -3.00    Nose mass-parameter (am)
   estimated Nose-frequenzy (Omega)   =  0.10E-29 period in steps = 0.13E+47 mass=  -0.989E-27a.u.
   SCALEE = 1.0000    scale energy and forces
   NPACO  =    256;   APACO  = 10.0  distance and # of slots for P.C.
   PSTRESS=    0.0 pullay stress

  Mass of Ions in am
   POMASS =  92.91 95.94180.95183.85
  Ionic Valenz
   ZVAL   =  13.00 14.00 11.00 14.00
  Atomic Wigner-Seitz radii
   RWIGS  =  -1.00 -1.00 -1.00 -1.00
  virtual crystal weights 
   VCA    =   1.00  1.00  1.00  1.00
   NELECT =     204.0000    total number of electrons
   NUPDOWN=      -1.0000    fix difference up-down

 DOS related values:
   EMIN   =  10.00;   EMAX   =-10.00  energy-range for DOS
   EFERMI =   0.00
   ISMEAR =     0;   SIGMA  =   0.02  broadening in eV -4-tet -1-fermi 0-gaus

 Electronic relaxation 2 (details)
   IALGO  =     38    algorithm
   LDIAG  =      T    sub-space diagonalisation (order eigenvalues)
   LSUBROT=      F    optimize rotation matrix (better conditioning)
   TURBO    =      0    0=normal 1=particle mesh
   IRESTART =      0    0=no restart 2=restart with 2 vectors
   NREBOOT  =      0    no. of reboots
   NMIN     =      0    reboot dimension
   EREF     =   0.00    reference energy to select bands
   IMIX   =      4    mixing-type and parameters
     AMIX     =   0.40;   BMIX     =  1.00
     AMIX_MAG =   1.60;   BMIX_MAG =  1.00
     AMIN     =   0.10
     WC   =   100.;   INIMIX=   1;  MIXPRE=   1;  MAXMIX= -45

 Intra band minimization:
   WEIMIN = 0.0000     energy-eigenvalue tresh-hold
   EBREAK =  0.20E-10  absolut break condition
   DEPER  =   0.30     relativ break condition  

   TIME   =   0.40     timestep for ELM

  volume/ion in A,a.u.               =      17.81       120.16
  Fermi-wavevector in a.u.,A,eV,Ry     =   1.464622  2.767735 29.186111  2.145119
  Thomas-Fermi vector in A             =   2.580576
 
 Write flags
   LWAVE        =      F    write WAVECAR
   LDOWNSAMPLE  =      F    k-point downsampling of WAVECAR
   LCHARG       =      F    write CHGCAR
   LVTOT        =      F    write LOCPOT, total local potential
   LVHAR        =      F    write LOCPOT, Hartree potential only
   LELF         =      F    write electronic localiz. function (ELF)
   LORBIT       =      0    0 simple, 1 ext, 2 COOP (PROOUT), +10 PAW based schemes


 Dipole corrections
   LMONO  =      F    monopole corrections only (constant potential shift)
   LDIPOL =      F    correct potential (dipole corrections)
   IDIPOL =      0    1-x, 2-y, 3-z, 4-all directions 
   EPSILON=  1.0000000 bulk dielectric constant

 Core level calculations are selected ICORELEVEL =  1
 Exchange correlation treatment:
   GGA     =    PE    GGA type
   LEXCH   =     8    internal setting for exchange type
   LIBXC   =     F    Libxc                    
   VOSKOWN =     0    Vosko Wilk Nusair interpolation
   LHFCALC =     F    Hartree Fock is set to
   LHFONE  =     F    Hartree Fock one center treatment
   AEXX    =    0.0000 exact exchange contribution

 Linear response parameters
   LEPSILON=     F    determine dielectric tensor
   LRPA    =     F    only Hartree local field effects (RPA)
   LNABLA  =     F    use nabla operator in PAW spheres
   LVEL    =     F    velocity operator in full k-point grid
   CSHIFT  =0.1000    complex shift for real part using Kramers Kronig
   OMEGAMAX=  -1.0    maximum frequency
   DEG_THRESHOLD= 0.2000000E-02 threshold for treating states as degnerate
   RTIME   =   -0.100 relaxation time in fs
  (WPLASMAI=    0.000 imaginary part of plasma frequency in eV, 0.658/RTIME)
   DFIELD  = 0.0000000 0.0000000 0.0000000 field for delta impulse in time
 
  Optional k-point grid parameters
   LKPOINTS_OPT  =     F    use optional k-point grid
   KPOINTS_OPT_MODE=     1    mode for optional k-point grid
 
 Orbital magnetization related:
   ORBITALMAG=     F  switch on orbital magnetization
   LCHIMAG   =     F  perturbation theory with respect to B field
   DQ        =  0.001000  dq finite difference perturbation B field
   LLRAUG    =     F  two centre corrections for induced B field



--------------------------------------------------------------------------------------------------------


 Static calculation
 charge density and potential will be updated during run
 non-spin polarized calculation
 Variant of blocked Davidson
 Davidson routine will perform the subspace rotation
 perform sub-space diagonalisation
    after iterative eigenvector-optimisation
 modified Broyden-mixing scheme, WC =      100.0
 initial mixing is a Kerker type mixing with AMIX =  0.4000 and BMIX =      1.0000
 Hartree-type preconditioning will be used
 using additional bands           22
 reciprocal scheme for non local part
 use partial core corrections
 calculate Harris-corrections to forces 
   (improved forces if not selfconsistent)
 use gradient corrections 
 use of overlap-Matrix (Vanderbilt PP)
 Gauss-broadening in eV      SIGMA  =   0.02


--------------------------------------------------------------------------------------------------------


  energy-cutoff  :      250.00
  volume of cell :      284.89
      direct lattice vectors                 reciprocal lattice vectors
     6.580000000  0.000000000  0.000000000     0.151975684  0.000000000  0.000000000
     0.000000000  6.580000000  0.000000000     0.000000000  0.151975684  0.000000000
     0.000000000  0.000000000  6.580000000     0.000000000  0.000000000  0.151975684

  length of vectors
     6.580000000  6.580000000  6.580000000     0.151975684  0.151975684  0.151975684


 
 k-points in units of 2pi/SCALE and weight: K-Spacing Value to Generate K-Mesh: 0.03
   0.00000000  0.00000000  0.00000000       0.008
   0.03039514  0.00000000  0.00000000       0.016
   0.00000000  0.03039514  0.00000000       0.016
   0.00000000  0.00000000  0.03039514       0.016
   0.06079027  0.00000000  0.00000000       0.016
   0.00000000  0.06079027  0.00000000       0.016
   0.00000000  0.00000000  0.06079027       0.016
   0.03039514  0.03039514  0.00000000       0.016
   0.00000000  0.03039514  0.03039514       0.016
   0.03039514  0.00000000  0.03039514       0.016
  -0.03039514  0.03039514  0.00000000       0.016
  -0.03039514  0.00000000  0.03039514       0.016
   0.00000000 -0.03039514  0.03039514       0.016
   0.06079027  0.03039514  0.00000000       0.016
   0.00000000  0.06079027  0.03039514       0.016
   0.03039514  0.00000000  0.06079027       0.016
  -0.03039514  0.06079027  0.00000000       0.016
  -0.06079027  0.00000000  0.03039514       0.016
   0.00000000  0.03039514  0.06079027       0.016
   0.00000000 -0.06079027  0.03039514       0.016
  -0.03039514  0.00000000  0.06079027       0.016
   0.06079027  0.00000000  0.03039514       0.016
   0.00000000 -0.03039514  0.06079027       0.016
   0.06079027 -0.03039514  0.00000000       0.016
   0.03039514  0.06079027  0.00000000       0.016
   0.06079027  0.06079027  0.00000000       0.016
   0.00000000  0.06079027  0.06079027       0.016
   0.06079027  0.00000000  0.06079027       0.016
  -0.06079027  0.06079027  0.00000000       0.016
  -0.06079027  0.00000000  0.06079027       0.016
   0.00000000 -0.06079027  0.06079027       0.016
   0.03039514  0.03039514  0.03039514       0.016
  -0.03039514  0.03039514  0.03039514       0.016
  -0.03039514 -0.03039514  0.03039514       0.016
   0.03039514 -0.03039514  0.03039514       0.016
   0.06079027  0.03039514  0.03039514       0.016
   0.03039514  0.06079027  0.03039514       0.016
   0.03039514  0.03039514  0.06079027       0.016
  -0.03039514  0.06079027  0.03039514       0.016
  -0.06079027  0.03039514  0.03039514       0.016
  -0.03039514  0.03039514  0.06079027       0.016
  -0.06079027 -0.03039514  0.03039514       0.016
  -0.03039514 -0.06079027  0.03039514       0.016
  -0.03039514 -0.03039514  0.06079027       0.016
   0.03039514 -0.06079027  0.03039514       0.016
   0.06079027 -0.03039514  0.03039514       0.016
   0.03039514 -0.03039514  0.06079027       0.016
   0.06079027  0.06079027  0.03039514       0.016
   0.03039514  0.06079027  0.06079027       0.016
   0.06079027  0.03039514  0.06079027       0.016
  -0.06079027  0.06079027  0.03039514       0.016
  -0.06079027  0.03039514  0.06079027       0.016
  -0.03039514  0.06079027  0.06079027       0.016
  -0.06079027 -0.06079027  0.03039514       0.016
  -0.03039514 -0.06079027  0.06079027       0.016
  -0.06079027 -0.03039514  0.06079027       0.016
   0.06079027 -0.06079027  0.03039514       0.016
   0.06079027 -0.03039514  0.06079027       0.016
   0.03039514 -0.06079027  0.06079027       0.016
   0.06079027  0.06079027  0.06079027       0.016
  -0.06079027  0.06079027  0.06079027       0.016
  -0.06079027 -0.06079027  0.06079027       0.016
   0.06079027 -0.06079027  0.06079027       0.016
 
 k-points in reciprocal lattice and weights: K-Spacing Value to Generate K-Mesh: 0.03
   0.00000000  0.00000000  0.00000000       0.008
   0.20000000  0.00000000  0.00000000       0.016
   0.00000000  0.20000000  0.00000000       0.016
   0.00000000  0.00000000  0.20000000       0.016
   0.40000000  0.00000000  0.00000000       0.016
   0.00000000  0.40000000  0.00000000       0.016
   0.00000000  0.00000000  0.40000000       0.016
   0.20000000  0.20000000  0.00000000       0.016
   0.00000000  0.20000000  0.20000000       0.016
   0.20000000  0.00000000  0.20000000       0.016
  -0.20000000  0.20000000  0.00000000       0.016
  -0.20000000  0.00000000  0.20000000       0.016
   0.00000000 -0.20000000  0.20000000       0.016
   0.40000000  0.20000000  0.00000000       0.016
   0.00000000  0.40000000  0.20000000       0.016
   0.20000000  0.00000000  0.40000000       0.016
  -0.20000000  0.40000000  0.00000000       0.016
  -0.40000000  0.00000000  0.20000000       0.016
   0.00000000  0.20000000  0.40000000       0.016
   0.00000000 -0.40000000  0.20000000       0.016
  -0.20000000  0.00000000  0.40000000       0.016
   0.40000000  0.00000000  0.20000000       0.016
   0.00000000 -0.20000000  0.40000000       0.016
   0.40000000 -0.20000000  0.00000000       0.016
   0.20000000  0.40000000  0.00000000       0.016
   0.40000000  0.40000000  0.00000000       0.016
   0.00000000  0.40000000  0.40000000       0.016
   0.40000000  0.00000000  0.40000000       0.016
  -0.40000000  0.40000000  0.00000000       0.016
  -0.40000000  0.00000000  0.40000000       0.016
   0.00000000 -0.40000000  0.40000000       0.016
   0.20000000  0.20000000  0.20000000       0.016
  -0.20000000  0.20000000  0.20000000       0.016
  -0.20000000 -0.20000000  0.20000000       0.016
   0.20000000 -0.20000000  0.20000000       0.016
   0.40000000  0.20000000  0.20000000       0.016
   0.20000000  0.40000000  0.20000000       0.016
   0.20000000  0.20000000  0.40000000       0.016
  -0.20000000  0.40000000  0.20000000       0.016
  -0.40000000  0.20000000  0.20000000       0.016
  -0.20000000  0.20000000  0.40000000       0.016
  -0.40000000 -0.20000000  0.20000000       0.016
  -0.20000000 -0.40000000  0.20000000       0.016
  -0.20000000 -0.20000000  0.40000000       0.016
   0.20000000 -0.40000000  0.20000000       0.016
   0.40000000 -0.20000000  0.20000000       0.016
   0.20000000 -0.20000000  0.40000000       0.016
   0.40000000  0.40000000  0.20000000       0.016
   0.20000000  0.40000000  0.40000000       0.016
   0.40000000  0.20000000  0.40000000       0.016
  -0.40000000  0.40000000  0.20000000       0.016
  -0.40000000  0.20000000  0.40000000       0.016
  -0.20000000  0.40000000  0.40000000       0.016
  -0.40000000 -0.40000000  0.20000000       0.016
  -0.20000000 -0.40000000  0.40000000       0.016
  -0.40000000 -0.20000000  0.40000000       0.016
   0.40000000 -0.40000000  0.20000000       0.016
   0.40000000 -0.20000000  0.40000000       0.016
   0.20000000 -0.40000000  0.40000000       0.016
   0.40000000  0.40000000  0.40000000       0.016
  -0.40000000  0.40000000  0.40000000       0.016
  -0.40000000 -0.40000000  0.40000000       0.016
   0.40000000 -0.40000000  0.40000000       0.016
 
 position of ions in fractional coordinates (direct lattice) 
   0.25000000  0.25000000  0.25000000
   0.00000000  0.00000000  0.00000000
   0.75000000  0.25000000  0.75000000
   0.75000000  0.25000000  0.25000000
   0.00000000  0.50000000  0.50000000
   0.50000000  0.00000000  0.00000000
   0.25000000  0.75000000  0.25000000
   0.50000000  0.00000000  0.50000000
   0.50000000  0.50000000  0.00000000
   0.50000000  0.50000000  0.50000000
   0.00000000  0.50000000  0.00000000
   0.75000000  0.75000000  0.25000000
   0.75000000  0.75000000  0.75000000
   0.25000000  0.25000000  0.75000000
   0.25000000  0.75000000  0.75000000
   0.00000000  0.00000000  0.50000000
 
 position of ions in cartesian coordinates  (Angst):
   1.64500000  1.64500000  1.64500000
   0.00000000  0.00000000  0.00000000
   4.93500000  1.64500000  4.93500000
   4.93500000  1.64500000  1.64500000
   0.00000000  3.29000000  3.29000000
   3.29000000  0.00000000  0.00000000
   1.64500000  4.93500000  1.64500000
   3.29000000  0.00000000  3.29000000
   3.29000000  3.29000000  0.00000000
   3.29000000  3.29000000  3.29000000
   0.00000000  3.29000000  0.00000000
   4.93500000  4.93500000  1.64500000
   4.93500000  4.93500000  4.93500000
   1.64500000  1.64500000  4.93500000
   1.64500000  4.93500000  4.93500000
   0.00000000  0.00000000  3.29000000
 


--------------------------------------------------------------------------------------------------------


 k-point   1 :   0.0000 0.0000 0.0000  plane waves:    2517
 k-point   2 :   0.2000 0.0000 0.0000  plane waves:    2545
 k-point   3 :   0.0000 0.2000 0.0000  plane waves:    2545
 k-point   4 :   0.0000 0.0000 0.2000  plane waves:    2545
 k-point   5 :   0.4000 0.0000 0.0000  plane waves:    2569
 k-point   6 :   0.0000 0.4000 0.0000  plane waves:    2569
 k-point   7 :   0.0000 0.0000 0.4000  plane waves:    2569
 k-point   8 :   0.2000 0.2000 0.0000  plane waves:    2562
 k-point   9 :   0.0000 0.2000 0.2000  plane waves:    2562
 k-point  10 :   0.2000 0.0000 0.2000  plane waves:    2562
 k-point  11 :  -0.2000 0.2000 0.0000  plane waves:    2562
 k-point  12 :  -0.2000 0.0000 0.2000  plane waves:    2562
 k-point  13 :   0.0000-0.2000 0.2000  plane waves:    2562
 k-point  14 :   0.4000 0.2000 0.0000  plane waves:    2566
 k-point  15 :   0.0000 0.4000 0.2000  plane waves:    2566
 k-point  16 :   0.2000 0.0000 0.4000  plane waves:    2566
 k-point  17 :  -0.2000 0.4000 0.0000  plane waves:    2566
 k-point  18 :  -0.4000 0.0000 0.2000  plane waves:    2566
 k-point  19 :   0.0000 0.2000 0.4000  plane waves:    2566
 k-point  20 :   0.0000-0.4000 0.2000  plane waves:    2566
 k-point  21 :  -0.2000 0.0000 0.4000  plane waves:    2566
 k-point  22 :   0.4000 0.0000 0.2000  plane waves:    2566
 k-point  23 :   0.0000-0.2000 0.4000  plane waves:    2566
 k-point  24 :   0.4000-0.2000 0.0000  plane waves:    2566
 k-point  25 :   0.2000 0.4000 0.0000  plane waves:    2566
 k-point  26 :   0.4000 0.4000 0.0000  plane waves:    2570
 k-point  27 :   0.0000 0.4000 0.4000  plane waves:    2570
 k-point  28 :   0.4000 0.0000 0.4000  plane waves:    2570
 k-point  29 :  -0.4000 0.4000 0.0000  plane waves:    2570
 k-point  30 :  -0.4000 0.0000 0.4000  plane waves:    2570
 k-point  31 :   0.0000-0.4000 0.4000  plane waves:    2570
 k-point  32 :   0.2000 0.2000 0.2000  plane waves:    2572
 k-point  33 :  -0.2000 0.2000 0.2000  plane waves:    2572
 k-point  34 :  -0.2000-0.2000 0.2000  plane waves:    2572
 k-point  35 :   0.2000-0.2000 0.2000  plane waves:    2572
 k-point  36 :   0.4000 0.2000 0.2000  plane waves:    2546
 k-point  37 :   0.2000 0.4000 0.2000  plane waves:    2546
 k-point  38 :   0.2000 0.2000 0.4000  plane waves:    2546
 k-point  39 :  -0.2000 0.4000 0.2000  plane waves:    2546
 k-point  40 :  -0.4000 0.2000 0.2000  plane waves:    2546
 k-point  41 :  -0.2000 0.2000 0.4000  plane waves:    2546
 k-point  42 :  -0.4000-0.2000 0.2000  plane waves:    2546
 k-point  43 :  -0.2000-0.4000 0.2000  plane waves:    2546
 k-point  44 :  -0.2000-0.2000 0.4000  plane waves:    2546
 k-point  45 :   0.2000-0.4000 0.2000  plane waves:    2546
 k-point  46 :   0.4000-0.2000 0.2000  plane waves:    2546
 k-point  47 :   0.2000-0.2000 0.4000  plane waves:    2546
 k-point  48 :   0.4000 0.4000 0.2000  plane waves:    2549
 k-point  49 :   0.2000 0.4000 0.4000  plane waves:    2549
 k-point  50 :   0.4000 0.2000 0.4000  plane waves:    2549
 k-point  51 :  -0.4000 0.4000 0.2000  plane waves:    2549
 k-point  52 :  -0.4000 0.2000 0.4000  plane waves:    2549
 k-point  53 :  -0.2000 0.4000 0.4000  plane waves:    2549
 k-point  54 :  -0.4000-0.4000 0.2000  plane waves:    2549
 k-point  55 :  -0.2000-0.4000 0.4000  plane waves:    2549
 k-point  56 :  -0.4000-0.2000 0.4000  plane waves:    2549
 k-point  57 :   0.4000-0.4000 0.2000  plane waves:    2549
 k-point  58 :   0.4000-0.2000 0.4000  plane waves:    2549
 k-point  59 :   0.2000-0.4000 0.4000  plane waves:    2549
 k-point  60 :   0.4000 0.4000 0.4000  plane waves:    2533
 k-point  61 :  -0.4000 0.4000 0.4000  plane waves:    2533
 k-point  62 :  -0.4000-0.4000 0.4000  plane waves:    2533
 k-point  63 :   0.4000-0.4000 0.4000  plane waves:    2533

 maximum and minimum number of plane-waves per node :       235      194

 maximum number of plane-waves:      2572
 maximum index in each direction: 
   IXMAX=    8   IYMAX=    8   IZMAX=    8
   IXMIN=   -8   IYMIN=   -8   IZMIN=   -8


 parallel 3D FFT for wavefunctions:
    minimum data exchange during FFTs selected (reduces bandwidth)
 parallel 3D FFT for charge:
    minimum data exchange during FFTs selected (reduces bandwidth)


 total amount of memory used by VASP MPI-rank0    47987. kBytes
=======================================================================

   base      :      30000. kBytes
   nonl-proj :       8332. kBytes
   fftplans  :        456. kBytes
   grid      :        919. kBytes
   one-center:         31. kBytes
   wavefun   :       8249. kBytes
 
     INWAV:  cpu time      0.0000: real time      0.0002
 Broyden mixing: mesh for mixing (old mesh)
   NGX = 17   NGY = 17   NGZ = 17
  (NGX  = 72   NGY  = 72   NGZ  = 72)
  gives a total of   4913 points

 initial charge density was supplied:
 charge density of overlapping atoms calculated
 number of electron     204.0000000 magnetization 
 keeping initial charge density in first step


--------------------------------------------------------------------------------------------------------


 Maximum index for augmentation-charges          517 (set IRDMAX)


--------------------------------------------------------------------------------------------------------


 First call to EWALD:  gamma=   0.269
 Maximum number of real-space cells 3x 3x 3
 Maximum number of reciprocal cells 3x 3x 3

    FEWALD:  cpu time      0.0012: real time      0.0012


--------------------------------------- Iteration      1(   1)  ---------------------------------------


    POTLOK:  cpu time      0.0125: real time      0.1781
    SETDIJ:  cpu time      0.0024: real time      0.0024
     EDDAV:  cpu time      3.0348: real time      3.0481
       DOS:  cpu time      0.0048: real time      0.0049
    --------------------------------------------
      LOOP:  cpu time      3.0545: real time      3.2335

 eigenvalue-minimisations  : 15832
 total energy-change (2. order) : 0.1858357E+04  (-0.7916296E+04)
 number of electron     204.0000000 magnetization 
 augmentation part      204.0000000 magnetization 

 Free energy of the ion-electron system (eV)
  ---------------------------------------------------
  alpha Z        PSCENC =      1806.99960973
  Ewald energy   TEWEN  =    -20767.26096347
  -Hartree energ DENC   =     -3834.34041834
  -exchange      EXHF   =         0.00000000
  -V(xc)+E(xc)   XCENC  =       773.43841097
  PAW double counting   =     19157.57453442   -18856.71529634
  entropy T*S    EENTRO =        -0.00176728
  eigenvalues    EBANDS =      -615.10047843
  atomic energy  EATOM  =     24193.76349408
  Solvation  Ediel_sol  =         0.00000000
  ---------------------------------------------------
  free energy    TOTEN  =      1858.35712535 eV

  energy without entropy =     1858.35889263  energy(sigma->0) =     1858.35800899


--------------------------------------------------------------------------------------------------------




--------------------------------------- Iteration      1(   2)  ---------------------------------------


     EDDAV:  cpu time      3.0644: real time      3.0776
       DOS:  cpu time      0.0042: real time      0.0042
    --------------------------------------------
      LOOP:  cpu time      3.0686: real time      3.0818

 eigenvalue-minimisations  : 16224
 total energy-change (2. order) :-0.1881012E+04  (-0.1821254E+04)
 number of electron     204.0000000 magnetization 
 augmentation part      204.0000000 magnetization 

 Free energy of the ion-electron system (eV)
  ---------------------------------------------------
  alpha Z        PSCENC =      1806.99960973
  Ewald energy   TEWEN  =    -20767.26096347
  -Hartree energ DENC   =     -3834.34041834
  -exchange      EXHF   =         0.00000000
  -V(xc)+E(xc)   XCENC  =       773.43841097
  PAW double counting   =     19157.57453442   -18856.71529634
  entropy T*S    EENTRO =        -0.00183711
  eigenvalues    EBANDS =     -2496.11235012
  atomic energy  EATOM  =     24193.76349408
  Solvation  Ediel_sol  =         0.00000000
  ---------------------------------------------------
  free energy    TOTEN  =       -22.65481618 eV

  energy without entropy =      -22.65297907  energy(sigma->0) =      -22.65389762


--------------------------------------------------------------------------------------------------------




--------------------------------------- Iteration      1(   3)  ---------------------------------------


     EDDAV:  cpu time      4.2179: real time      4.2347
       DOS:  cpu time      0.0047: real time      0.0047
    --------------------------------------------
      LOOP:  cpu time      4.2226: real time      4.2394

 eigenvalue-minimisations  : 24672
 total energy-change (2. order) :-0.1580392E+03  (-0.1495178E+03)
 number of electron     204.0000000 magnetization 
 augmentation part      204.0000000 magnetization 

 Free energy of the ion-electron system (eV)
  ---------------------------------------------------
  alpha Z        PSCENC =      1806.99960973
  Ewald energy   TEWEN  =    -20767.26096347
  -Hartree energ DENC   =     -3834.34041834
  -exchange      EXHF   =         0.00000000
  -V(xc)+E(xc)   XCENC  =       773.43841097
  PAW double counting   =     19157.57453442   -18856.71529634
  entropy T*S    EENTRO =        -0.00303758
  eigenvalues    EBANDS =     -2654.15037106
  atomic energy  EATOM  =     24193.76349408
  Solvation  Ediel_sol  =         0.00000000
  ---------------------------------------------------
  free energy    TOTEN  =      -180.69403757 eV

  energy without entropy =     -180.69100000  energy(sigma->0) =     -180.69251879


--------------------------------------------------------------------------------------------------------




--------------------------------------- Iteration      1(   4)  ---------------------------------------


     EDDAV:  cpu time      4.1435: real time      4.1606
       DOS:  cpu time      0.0043: real time      0.0044
    --------------------------------------------
      LOOP:  cpu time      4.1478: real time      4.1650

 eigenvalue-minimisations  : 24312
 total energy-change (2. order) :-0.1021685E+02  (-0.9928742E+01)
 number of electron     204.0000000 magnetization 
 augmentation part      204.0000000 magnetization 

 Free energy of the ion-electron system (eV)
  ---------------------------------------------------
  alpha Z        PSCENC =      1806.99960973
  Ewald energy   TEWEN  =    -20767.26096347
  -Hartree energ DENC   =     -3834.34041834
  -exchange      EXHF   =         0.00000000
  -V(xc)+E(xc)   XCENC  =       773.43841097
  PAW double counting   =     19157.57453442   -18856.71529634
  entropy T*S    EENTRO =        -0.00395687
  eigenvalues    EBANDS =     -2664.36630154
  atomic energy  EATOM  =     24193.76349408
  Solvation  Ediel_sol  =         0.00000000
  ---------------------------------------------------
  free energy    TOTEN  =      -190.91088735 eV

  energy without entropy =     -190.90693048  energy(sigma->0) =     -190.90890892


--------------------------------------------------------------------------------------------------------




--------------------------------------- Iteration      1(   5)  ---------------------------------------


     EDDAV:  cpu time      4.0065: real time      4.0974
       DOS:  cpu time      0.0045: real time      0.0046
    CHARGE:  cpu time      0.0828: real time      0.0831
    MIXING:  cpu time      0.0002: real time      0.0003
    --------------------------------------------
      LOOP:  cpu time      4.0941: real time      4.1854

 eigenvalue-minimisations  : 23328
 total energy-change (2. order) :-0.5672051E+00  (-0.5625192E+00)
 number of electron     203.9999824 magnetization 
 augmentation part       41.3176674 magnetization 

 Broyden mixing:
  rms(total) = 0.52514E+01    rms(broyden)= 0.52505E+01
  rms(prec ) = 0.57839E+01
  weight for this iteration     100.00

 Free energy of the ion-electron system (eV)
  ---------------------------------------------------
  alpha Z        PSCENC =      1806.99960973
  Ewald energy   TEWEN  =    -20767.26096347
  -Hartree energ DENC   =     -3834.34041834
  -exchange      EXHF   =         0.00000000
  -V(xc)+E(xc)   XCENC  =       773.43841097
  PAW double counting   =     19157.57453442   -18856.71529634
  entropy T*S    EENTRO =        -0.00435032
  eigenvalues    EBANDS =     -2664.93311323
  atomic energy  EATOM  =     24193.76349408
  Solvation  Ediel_sol  =         0.00000000
  ---------------------------------------------------
  free energy    TOTEN  =      -191.47809248 eV

  energy without entropy =     -191.47374217  energy(sigma->0) =     -191.47591733


--------------------------------------------------------------------------------------------------------




--------------------------------------- Iteration      1(   6)  ---------------------------------------


    POTLOK:  cpu time      0.0047: real time      0.0049
    SETDIJ:  cpu time      0.0018: real time      0.0018
     EDDAV:  cpu time      3.4252: real time      3.4390
       DOS:  cpu time      0.0053: real time      0.0053
    CHARGE:  cpu time      0.0852: real time      0.0855
    MIXING:  cpu time      0.0003: real time      0.0003
    --------------------------------------------
      LOOP:  cpu time      3.5225: real time      3.5368

 eigenvalue-minimisations  : 18752
 total energy-change (2. order) : 0.6579604E+01  (-0.2180046E+01)
 number of electron     203.9999812 magnetization 
 augmentation part       42.9864370 magnetization 

 Broyden mixing:
  rms(total) = 0.20442E+01    rms(broyden)= 0.20440E+01
  rms(prec ) = 0.27254E+01
  weight for this iteration     100.00

 eigenvalues of (default mixing * dielectric matrix)
  average eigenvalue GAMMA=   1.4487
  1.4487

 Free energy of the ion-electron system (eV)
  ---------------------------------------------------
  alpha Z        PSCENC =      1806.99960973
  Ewald energy   TEWEN  =    -20767.26096347
  -Hartree energ DENC   =     -3622.51570552
  -exchange      EXHF   =         0.00000000
  -V(xc)+E(xc)   XCENC  =       763.06868695
  PAW double counting   =     23036.59458365   -22759.66828726
  entropy T*S    EENTRO =        -0.00279544
  eigenvalues    EBANDS =     -2835.87711153
  atomic energy  EATOM  =     24193.76349408
  Solvation  Ediel_sol  =         0.00000000
  ---------------------------------------------------
  free energy    TOTEN  =      -184.89848880 eV

  energy without entropy =     -184.89569336  energy(sigma->0) =     -184.89709108


--------------------------------------------------------------------------------------------------------




--------------------------------------- Iteration      1(   7)  ---------------------------------------


    POTLOK:  cpu time      0.0047: real time      0.0048
    SETDIJ:  cpu time      0.0018: real time      0.0018
     EDDAV:  cpu time      3.9440: real time      3.9601
       DOS:  cpu time      0.0054: real time      0.0055
    CHARGE:  cpu time      0.0852: real time      0.0855
    MIXING:  cpu time      0.0003: real time      0.0003
    --------------------------------------------
      LOOP:  cpu time      4.0413: real time      4.0579

 eigenvalue-minimisations  : 22808
 total energy-change (2. order) :-0.8113307E+00  (-0.2171363E+01)
 number of electron     203.9999822 magnetization 
 augmentation part       42.5862444 magnetization 

 Broyden mixing:
  rms(total) = 0.13855E+01    rms(broyden)= 0.13851E+01
  rms(prec ) = 0.30922E+01
  weight for this iteration     100.00

 eigenvalues of (default mixing * dielectric matrix)
  average eigenvalue GAMMA=   1.0818
  1.6734  0.4903

 Free energy of the ion-electron system (eV)
  ---------------------------------------------------
  alpha Z        PSCENC =      1806.99960973
  Ewald energy   TEWEN  =    -20767.26096347
  -Hartree energ DENC   =     -3578.50112026
  -exchange      EXHF   =         0.00000000
  -V(xc)+E(xc)   XCENC  =       760.14179909
  PAW double counting   =     25285.33856064   -25014.49823453
  entropy T*S    EENTRO =        -0.00466341
  eigenvalues    EBANDS =     -2871.68830136
  atomic energy  EATOM  =     24193.76349408
  Solvation  Ediel_sol  =         0.00000000
  ---------------------------------------------------
  free energy    TOTEN  =      -185.70981949 eV

  energy without entropy =     -185.70515607  energy(sigma->0) =     -185.70748778


--------------------------------------------------------------------------------------------------------




--------------------------------------- Iteration      1(   8)  ---------------------------------------


    POTLOK:  cpu time      0.0047: real time      0.0048
    SETDIJ:  cpu time      0.0017: real time      0.0017
     EDDAV:  cpu time      3.6141: real time      3.6287
       DOS:  cpu time      0.0048: real time      0.0048
    CHARGE:  cpu time      0.0831: real time      0.0834
    MIXING:  cpu time      0.0003: real time      0.0003
    --------------------------------------------
      LOOP:  cpu time      3.7086: real time      3.7237

 eigenvalue-minimisations  : 20416
 total energy-change (2. order) : 0.3312611E+01  (-0.1006310E+01)
 number of electron     203.9999817 magnetization 
 augmentation part       43.1909469 magnetization 

 Broyden mixing:
  rms(total) = 0.40277E+00    rms(broyden)= 0.40187E+00
  rms(prec ) = 0.61183E+00
  weight for this iteration     100.00

 eigenvalues of (default mixing * dielectric matrix)
  average eigenvalue GAMMA=   1.0877
  1.7961  1.0605  0.4064

 Free energy of the ion-electron system (eV)
  ---------------------------------------------------
  alpha Z        PSCENC =      1806.99960973
  Ewald energy   TEWEN  =    -20767.26096347
  -Hartree energ DENC   =     -3521.88612632
  -exchange      EXHF   =         0.00000000
  -V(xc)+E(xc)   XCENC  =       757.68072419
  PAW double counting   =     26626.58447438   -26361.90867209
  entropy T*S    EENTRO =        -0.00465552
  eigenvalues    EBANDS =     -2916.36509398
  atomic energy  EATOM  =     24193.76349408
  Solvation  Ediel_sol  =         0.00000000
  ---------------------------------------------------
  free energy    TOTEN  =      -182.39720898 eV

  energy without entropy =     -182.39255347  energy(sigma->0) =     -182.39488122


--------------------------------------------------------------------------------------------------------




--------------------------------------- Iteration      1(   9)  ---------------------------------------


    POTLOK:  cpu time      0.0047: real time      0.0048
    SETDIJ:  cpu time      0.0017: real time      0.0017
     EDDAV:  cpu time      3.7962: real time      3.8117
       DOS:  cpu time      0.0045: real time      0.0045
    CHARGE:  cpu time      0.0833: real time      0.0836
    MIXING:  cpu time      0.0003: real time      0.0003
    --------------------------------------------
      LOOP:  cpu time      3.8907: real time      3.9066

 eigenvalue-minimisations  : 21712
 total energy-change (2. order) :-0.5180627E-01  (-0.1682762E+00)
 number of electron     203.9999818 magnetization 
 augmentation part       43.1812643 magnetization 

 Broyden mixing:
  rms(total) = 0.30899E+00    rms(broyden)= 0.30890E+00
  rms(prec ) = 0.45808E+00
  weight for this iteration     100.00

 eigenvalues of (default mixing * dielectric matrix)
  average eigenvalue GAMMA=   1.1297
  1.9964  1.6219  0.5250  0.3754

 Free energy of the ion-electron system (eV)
  ---------------------------------------------------
  alpha Z        PSCENC =      1806.99960973
  Ewald energy   TEWEN  =    -20767.26096347
  -Hartree energ DENC   =     -3518.11871793
  -exchange      EXHF   =         0.00000000
  -V(xc)+E(xc)   XCENC  =       757.52874740
  PAW double counting   =     26941.63367973   -26676.43367515
  entropy T*S    EENTRO =        -0.00478434
  eigenvalues    EBANDS =     -2920.55640531
  atomic energy  EATOM  =     24193.76349408
  Solvation  Ediel_sol  =         0.00000000
  ---------------------------------------------------
  free energy    TOTEN  =      -182.44901525 eV

  energy without entropy =     -182.44423091  energy(sigma->0) =     -182.44662308


--------------------------------------------------------------------------------------------------------




--------------------------------------- Iteration      1(  10)  ---------------------------------------


    POTLOK:  cpu time      0.0047: real time      0.0048
    SETDIJ:  cpu time      0.0018: real time      0.0018
     EDDAV:  cpu time      3.6331: real time      3.6481
       DOS:  cpu time      0.0048: real time      0.0048
    CHARGE:  cpu time      0.0850: real time      0.0853
    MIXING:  cpu time      0.0003: real time      0.0003
    --------------------------------------------
      LOOP:  cpu time      3.7297: real time      3.7451

 eigenvalue-minimisations  : 20584
 total energy-change (2. order) : 0.2881173E-01  (-0.3471833E-01)
 number of electron     203.9999818 magnetization 
 augmentation part       43.1385917 magnetization 

 Broyden mixing:
  rms(total) = 0.14498E+00    rms(broyden)= 0.14489E+00
  rms(prec ) = 0.22567E+00
  weight for this iteration     100.00

 eigenvalues of (default mixing * dielectric matrix)
  average eigenvalue GAMMA=   1.1854
  2.6133  1.7164  0.8090  0.3941  0.3941

 Free energy of the ion-electron system (eV)
  ---------------------------------------------------
  alpha Z        PSCENC =      1806.99960973
  Ewald energy   TEWEN  =    -20767.26096347
  -Hartree energ DENC   =     -3520.11939755
  -exchange      EXHF   =         0.00000000
  -V(xc)+E(xc)   XCENC  =       757.59206195
  PAW double counting   =     27237.23683739   -26970.18576042
  entropy T*S    EENTRO =        -0.00536670
  eigenvalues    EBANDS =     -2920.44071854
  atomic energy  EATOM  =     24193.76349408
  Solvation  Ediel_sol  =         0.00000000
  ---------------------------------------------------
  free energy    TOTEN  =      -182.42020353 eV

  energy without entropy =     -182.41483682  energy(sigma->0) =     -182.41752018


--------------------------------------------------------------------------------------------------------




--------------------------------------- Iteration      1(  11)  ---------------------------------------


    POTLOK:  cpu time      0.0046: real time      0.0048
    SETDIJ:  cpu time      0.0017: real time      0.0017
     EDDAV:  cpu time      3.7474: real time      3.7632
       DOS:  cpu time      0.0047: real time      0.0048
    CHARGE:  cpu time      0.0831: real time      0.0834
    MIXING:  cpu time      0.0003: real time      0.0003
    --------------------------------------------
      LOOP:  cpu time      3.8419: real time      3.8582

 eigenvalue-minimisations  : 21080
 total energy-change (2. order) : 0.2700667E-02  (-0.1103837E-01)
 number of electron     203.9999819 magnetization 
 augmentation part       43.1000677 magnetization 

 Broyden mixing:
  rms(total) = 0.52479E-01    rms(broyden)= 0.52374E-01
  rms(prec ) = 0.13626E+00
  weight for this iteration     100.00

 eigenvalues of (default mixing * dielectric matrix)
  average eigenvalue GAMMA=   1.0673
  2.5573  1.7139  0.8506  0.5091  0.4095  0.3631

 Free energy of the ion-electron system (eV)
  ---------------------------------------------------
  alpha Z        PSCENC =      1806.99960973
  Ewald energy   TEWEN  =    -20767.26096347
  -Hartree energ DENC   =     -3523.67959018
  -exchange      EXHF   =         0.00000000
  -V(xc)+E(xc)   XCENC  =       757.75473882
  PAW double counting   =     27394.88707967   -27125.95778577
  entropy T*S    EENTRO =        -0.00558499
  eigenvalues    EBANDS =     -2918.91850075
  atomic energy  EATOM  =     24193.76349408
  Solvation  Ediel_sol  =         0.00000000
  ---------------------------------------------------
  free energy    TOTEN  =      -182.41750286 eV

  energy without entropy =     -182.41191787  energy(sigma->0) =     -182.41471037


--------------------------------------------------------------------------------------------------------




--------------------------------------- Iteration      1(  12)  ---------------------------------------


    POTLOK:  cpu time      0.0047: real time      0.0048
    SETDIJ:  cpu time      0.0017: real time      0.0017
     EDDAV:  cpu time      3.5905: real time      3.6050
       DOS:  cpu time      0.0045: real time      0.0046
    CHARGE:  cpu time      0.0832: real time      0.0835
    MIXING:  cpu time      0.0003: real time      0.0003
    --------------------------------------------
[...]
     25     -25.5653      2.00000
     26     -25.5532      2.00000
     27     -25.5233      2.00000
     28     -25.4533      2.00000
     29     -25.3982      2.00000
     30     -25.0235      2.00000
     31     -25.0053      2.00000
     32     -24.9656      2.00000
     33     -24.8929      2.00000
     34     -24.8552      2.00000
     35     -24.8168      2.00000
     36     -24.7522      2.00000
     37     -24.7250      2.00000
     38     -24.6946      2.00000
     39     -24.6354      2.00000
     40     -24.6062      2.00000
     41     -24.5349      2.00000
     42     -24.5270      2.00000
     43     -24.4857      2.00000
     44     -24.4498      2.00000
     45     -21.6952      2.00000
     46     -21.6716      2.00000
     47     -21.6351      2.00000
     48     -21.6285      2.00000
     49     -21.5466      2.00000
     50     -21.4430      2.00000
     51     -21.3727      2.00000
     52     -21.3488      2.00000
     53     -21.3111      2.00000
     54     -21.2644      2.00000
     55     -21.2113      2.00000
     56     -21.1333      2.00000
     57     -21.1192      2.00000
     58     -21.0959      2.00000
     59     -21.0790      2.00000
     60       3.7348      2.00000
     61       4.1865      2.00000
     62       4.4095      2.00000
     63       4.8394      2.00000
     64       5.0531      2.00000
     65       5.2934      2.00000
     66       5.5510      2.00000
     67       6.0077      2.00000
     68       6.3246      2.00000
     69       6.3604      2.00000
     70       6.4051      2.00000
     71       6.4238      2.00000
     72       6.5286      2.00000
     73       6.5858      2.00000
     74       6.6717      2.00000
     75       6.6934      2.00000
     76       6.7057      2.00000
     77       6.7513      2.00000
     78       6.7846      2.00000
     79       6.8501      2.00000
     80       7.1144      2.00000
     81       7.1509      2.00000
     82       7.2577      2.00000
     83       7.3018      2.00000
     84       7.3732      2.00000
     85       7.3837      2.00000
     86       7.4183      2.00000
     87       7.4407      2.00000
     88       7.4956      2.00000
     89       7.5209      2.00000
     90       7.5569      2.00000
     91       7.5934      2.00000
     92       7.6217      2.00000
     93       7.6294      2.00000
     94       7.6722      2.00000
     95       7.6788      2.00000
     96       7.6941      2.00000
     97       7.7390      2.00000
     98       7.7745      2.00000
     99       7.7922      2.00000
    100       7.8369      2.00000
    101       7.8751      2.00000
    102       7.9332      2.00000
    103       7.9565      2.00000
    104       8.0219      2.00000
    105       8.0630      2.00000
    106       8.1278      2.00000
    107       8.4838      2.00000
    108      11.0916      0.00000
    109      11.2068      0.00000
    110      11.3388      0.00000
    111      11.4255      0.00000
    112      11.4858      0.00000
    113      11.5584      0.00000
    114      11.5764      0.00000
    115      11.6673      0.00000
    116      11.7477      0.00000
    117      11.8478      0.00000
    118      11.8895      0.00000
    119      11.9854      0.00000
    120      12.0442      0.00000
    121      12.0979      0.00000
    122      12.1675      0.00000
    123      12.2106      0.00000
    124      12.2854      0.00000

 k-point    63 :       0.4000   -0.4000    0.4000
  band No.  band energies     occupation 
      1     -64.5223      2.00000
      2     -64.4892      2.00000
      3     -64.4443      2.00000
      4     -51.4676      2.00000
      5     -51.4218      2.00000
      6     -51.4082      2.00000
      7     -45.3373      2.00000
      8     -45.3129      2.00000
      9     -45.2503      2.00000
     10     -45.2414      2.00000
     11     -45.2013      2.00000
     12     -28.8680      2.00000
     13     -28.8111      2.00000
     14     -28.7614      2.00000
     15     -28.7397      2.00000
     16     -28.7192      2.00000
     17     -28.7028      2.00000
     18     -28.6657      2.00000
     19     -28.5602      2.00000
     20     -28.5132      2.00000
     21     -25.7584      2.00000
     22     -25.7107      2.00000
     23     -25.6139      2.00000
     24     -25.5838      2.00000
     25     -25.5666      2.00000
     26     -25.5530      2.00000
     27     -25.5231      2.00000
     28     -25.4538      2.00000
     29     -25.3980      2.00000
     30     -25.0202      2.00000
     31     -25.0076      2.00000
     32     -24.9625      2.00000
     33     -24.8956      2.00000
     34     -24.8554      2.00000
     35     -24.8161      2.00000
     36     -24.7500      2.00000
     37     -24.7283      2.00000
     38     -24.6948      2.00000
     39     -24.6346      2.00000
     40     -24.6064      2.00000
     41     -24.5394      2.00000
     42     -24.5239      2.00000
     43     -24.4845      2.00000
     44     -24.4496      2.00000
     45     -21.6951      2.00000
     46     -21.6724      2.00000
     47     -21.6362      2.00000
     48     -21.6277      2.00000
     49     -21.5463      2.00000
     50     -21.4430      2.00000
     51     -21.3723      2.00000
     52     -21.3488      2.00000
     53     -21.3109      2.00000
     54     -21.2649      2.00000
     55     -21.2109      2.00000
     56     -21.1297      2.00000
     57     -21.1221      2.00000
     58     -21.0968      2.00000
     59     -21.0787      2.00000
     60       3.6967      2.00000
     61       4.2680      2.00000
     62       4.4861      2.00000
     63       4.6845      2.00000
     64       5.0486      2.00000
     65       5.3243      2.00000
     66       5.5361      2.00000
     67       6.0270      2.00000
     68       6.3509      2.00000
     69       6.3741      2.00000
     70       6.4087      2.00000
     71       6.4428      2.00000
     72       6.4835      2.00000
     73       6.5615      2.00000
     74       6.6642      2.00000
     75       6.7025      2.00000
     76       6.7337      2.00000
     77       6.7580      2.00000
     78       6.7895      2.00000
     79       6.8278      2.00000
     80       7.1267      2.00000
     81       7.1428      2.00000
     82       7.2472      2.00000
     83       7.3193      2.00000
     84       7.3369      2.00000
     85       7.3762      2.00000
     86       7.4288      2.00000
     87       7.4567      2.00000
     88       7.4903      2.00000
     89       7.4994      2.00000
     90       7.5412      2.00000
     91       7.5901      2.00000
     92       7.6216      2.00000
     93       7.6319      2.00000
     94       7.6654      2.00000
     95       7.6821      2.00000
     96       7.7003      2.00000
     97       7.7414      2.00000
     98       7.7764      2.00000
     99       7.8042      2.00000
    100       7.8508      2.00000
    101       7.9041      2.00000
    102       7.9374      2.00000
    103       7.9564      2.00000
    104       7.9961      2.00000
    105       8.0777      2.00000
    106       8.1065      2.00000
    107       8.4956      2.00000
    108      11.1611      0.00000
    109      11.2001      0.00000
    110      11.2844      0.00000
    111      11.4044      0.00000
    112      11.4856      0.00000
    113      11.5483      0.00000
    114      11.6176      0.00000
    115      11.6737      0.00000
    116      11.7730      0.00000
    117      11.8159      0.00000
    118      11.8508      0.00000
    119      11.9814      0.00000
    120      12.0022      0.00000
    121      12.0734      0.00000
    122      12.1183      0.00000
    123      12.1795      0.00000
    124      12.2996      0.00000


--------------------------------------------------------------------------------------------------------


 soft charge-density along one line, spin component           1
         0         1         2         3         4         5         6         7         8         9
 total charge-density along one line
 
 pseudopotential strength for first ion, spin component:           1
  5.805 -20.484  -0.003   0.001   0.001   0.007  -0.002  -0.002
-20.484   9.382  -0.005   0.001   0.001   0.000  -0.000  -0.000
 -0.003  -0.005  -9.874  -0.001   0.003   6.145   0.002  -0.003
  0.001   0.001  -0.001  -9.876   0.000   0.002   6.147  -0.000
  0.001   0.001   0.003   0.000  -9.870  -0.003  -0.000   6.141
  0.007   0.000   6.145   0.002  -0.003   7.851  -0.001   0.002
 -0.002  -0.000   0.002   6.147  -0.000  -0.001   7.850   0.000
 -0.002  -0.000  -0.003  -0.000   6.141   0.002   0.000   7.853
  0.002   0.001   0.001   0.000  -0.003  -0.001  -0.000   0.004
 -0.001  -0.000   0.001  -0.003   0.000  -0.001   0.004  -0.000
 -0.001  -0.001   0.001   0.001  -0.000  -0.002  -0.001   0.000
  0.000   0.000   0.000   0.001   0.001  -0.000  -0.001  -0.001
  0.001   0.000   0.002  -0.000   0.001  -0.003   0.000  -0.001
  0.003   0.001   0.001   0.000  -0.004  -0.002  -0.000   0.005
 -0.001  -0.001   0.001  -0.004   0.000  -0.002   0.005  -0.000
 -0.002  -0.001   0.002   0.001  -0.001  -0.002  -0.001   0.001
  0.000   0.000   0.000   0.001   0.001  -0.000  -0.002  -0.002
  0.002   0.000   0.003  -0.000   0.001  -0.004   0.000  -0.001
 total augmentation occupancy for first ion, spin component:           1
  1.995  -0.046   0.000  -0.000   0.000   0.000  -0.000  -0.000   0.006   0.002  -0.003   0.003   0.001  -0.005  -0.001   0.003
 -0.046   1.312   0.001  -0.001  -0.000   0.004  -0.001  -0.002   0.028  -0.012  -0.020   0.009   0.036  -0.015   0.015   0.008
  0.000   0.001   1.996  -0.000  -0.000  -0.028   0.001   0.000  -0.003  -0.004   0.002  -0.005   0.004   0.002   0.002  -0.002
 -0.000  -0.001  -0.000   1.996  -0.000   0.001  -0.029   0.001  -0.004   0.007   0.001  -0.003  -0.000   0.003  -0.005  -0.000
  0.000  -0.000  -0.000  -0.000   1.996   0.000   0.001  -0.029   0.007  -0.005  -0.001  -0.004   0.002  -0.005   0.003   0.001
  0.000   0.004  -0.028   0.001   0.000   0.065  -0.002  -0.000   0.000   0.001  -0.007   0.011  -0.012  -0.001  -0.001   0.003
 -0.000  -0.001   0.001  -0.029   0.001  -0.002   0.066  -0.001   0.009   0.006  -0.004   0.001   0.000  -0.006  -0.002   0.002
 -0.000  -0.002   0.000   0.001  -0.029  -0.000  -0.001   0.068   0.005   0.011   0.003   0.001  -0.005  -0.002  -0.006  -0.001
  0.006   0.028  -0.003  -0.004   0.007   0.000   0.009   0.005   3.371  -0.001  -0.040  -0.089   0.000  -1.417   0.005   0.020
  0.002  -0.012  -0.004   0.007  -0.005   0.001   0.006   0.011  -0.001   3.369   0.006   0.075  -0.011   0.005  -1.413  -0.002
 -0.003  -0.020   0.002   0.001  -0.001  -0.007  -0.004   0.003  -0.040   0.006   2.679   0.009  -0.047   0.019  -0.003  -1.220
  0.003   0.009  -0.005  -0.003  -0.004   0.011   0.001   0.001  -0.089   0.075   0.009   3.333   0.018   0.054  -0.033  -0.004
  0.001   0.036   0.004  -0.000   0.002  -0.012   0.000  -0.005   0.000  -0.011  -0.047   0.018   2.742  -0.000   0.004   0.020
 -0.005  -0.015   0.002   0.003  -0.005  -0.001  -0.006  -0.002  -1.417   0.005   0.019   0.054  -0.000   0.607  -0.004  -0.010
 -0.001   0.015   0.002  -0.005   0.003  -0.001  -0.002  -0.006   0.005  -1.413  -0.003  -0.033   0.004  -0.004   0.604   0.001
  0.003   0.008  -0.002  -0.000   0.001   0.003   0.002  -0.001   0.020  -0.002  -1.220  -0.004   0.020  -0.010   0.001   0.563
 -0.002  -0.002   0.003   0.002   0.002  -0.006  -0.002  -0.001   0.054  -0.032  -0.004  -1.404  -0.007  -0.030   0.015   0.002
 -0.001  -0.016  -0.003   0.000  -0.001   0.005  -0.000   0.002   0.000   0.004   0.021  -0.008  -1.241  -0.000  -0.002  -0.009


------------------------ aborting loop because EDIFF is reached ----------------------------------------


    CHARGE:  cpu time      0.0859: real time      0.0862
    FORLOC:  cpu time      0.0005: real time      0.0005
    FORNL :  cpu time      0.7946: real time      0.7974
    STRESS:  cpu time      1.0083: real time      1.0120
    FORCOR:  cpu time      0.0058: real time      0.0058
    FORHAR:  cpu time      0.0015: real time      0.0015
    MIXING:  cpu time      0.0008: real time      0.0008
    OFIELD:  cpu time      0.0000: real time      0.0000

  FORCE on cell =-STRESS in cart. coord.  units (eV):
  Direction    XX          YY          ZZ          XY          YZ          ZX
  --------------------------------------------------------------------------------------
  Alpha Z  1806.99961  1806.99961  1806.99961
  Ewald   -6928.48133 -6973.83786 -6865.00782    15.80762    -1.05384     3.16152
  Hartree  1169.28901  1123.18060  1231.43649    16.12375    -1.44185     2.14117
  E(xc)    -929.08624  -929.10127  -929.10729    -0.05939     0.00932     0.00622
  Local    1564.55905  1656.02923  1438.75973   -30.80004     2.78848    -5.05848
  n-local  -388.66397  -388.47622  -388.56670    -0.24095    -0.56918    -0.22150
  augment   500.88969   500.88643   500.93506    -0.15173    -0.01373    -0.03611
  Kinetic  3184.94821  3185.27068  3184.68084    -0.24309     0.23799    -0.07689
  Fock        0.00000     0.00000     0.00000     0.00000     0.00000     0.00000
  -------------------------------------------------------------------------------------
  Total     -19.54597   -19.04878   -19.87009     0.43616    -0.04282    -0.08405
  in kB    -109.92338  -107.12729  -111.74621     2.45292    -0.24081    -0.47270
  external pressure =     -109.60 kB  Pullay stress =        0.00 kB


 VOLUME and BASIS-vectors are now :
 -----------------------------------------------------------------------------
  energy-cutoff  :      250.00
  volume of cell :      284.89
      direct lattice vectors                 reciprocal lattice vectors
     6.580000000  0.000000000  0.000000000     0.151975684  0.000000000  0.000000000
     0.000000000  6.580000000  0.000000000     0.000000000  0.151975684  0.000000000
     0.000000000  0.000000000  6.580000000     0.000000000  0.000000000  0.151975684

  length of vectors
     6.580000000  6.580000000  6.580000000     0.151975684  0.151975684  0.151975684


 FORCES acting on ions
    electron-ion (+dipol)            ewald-force                    non-local-force                 convergence-correction
 -----------------------------------------------------------------------------------------------
   -.997E+01 -.926E+02 0.309E+02   0.102E+02 0.918E+02 -.306E+02   -.610E-02 0.184E-01 -.443E-01   -.125E-03 0.108E-04 -.143E-04
   0.722E+02 0.303E+02 -.105E+02   -.714E+02 -.306E+02 0.102E+02   -.122E+00 0.142E+00 0.178E+00   -.455E-04 -.204E-03 -.837E-05
   0.100E+02 -.925E+02 -.309E+02   -.102E+02 0.918E+02 0.306E+02   0.163E-01 -.225E-01 0.419E-01   0.136E-03 0.414E-04 0.387E-04
   0.100E+02 -.924E+02 0.308E+02   -.102E+02 0.918E+02 -.306E+02   -.696E-02 -.694E-01 -.351E-01   0.994E-04 0.483E-04 -.493E-04
   0.721E+02 -.304E+02 0.105E+02   -.714E+02 0.306E+02 -.102E+02   -.689E-01 -.138E+00 -.150E+00   -.813E-04 0.178E-03 -.153E-04
   -.774E+02 0.327E+02 -.113E+02   0.769E+02 -.329E+02 0.110E+02   -.515E-02 0.585E-01 0.132E+00   0.986E-04 -.204E-03 0.121E-04
   -.109E+02 0.992E+02 0.331E+02   0.110E+02 -.988E+02 -.329E+02   0.551E-01 0.110E+00 -.256E-01   -.137E-03 -.365E-04 -.234E-04
   -.775E+02 0.327E+02 0.113E+02   0.769E+02 -.329E+02 -.110E+02   0.859E-01 0.792E-01 -.136E+00   0.601E-04 -.220E-03 -.470E-05
   -.612E+02 -.256E+02 -.892E+01   0.604E+02 0.259E+02 0.863E+01   -.104E-01 -.791E-01 0.884E-01   0.251E-04 0.138E-03 0.312E-04
   -.612E+02 -.256E+02 0.893E+01   0.604E+02 0.259E+02 -.863E+01   -.487E-01 -.934E-01 -.107E+00   0.367E-04 0.159E-03 -.192E-04
   0.611E+02 -.256E+02 -.892E+01   -.604E+02 0.259E+02 0.863E+01   0.606E-01 -.486E-01 0.725E-01   -.594E-04 0.134E-03 0.157E-04
   0.839E+01 0.784E+02 0.262E+02   -.863E+01 -.777E+02 -.259E+02   0.453E-02 0.679E-01 -.435E-01   0.110E-03 -.148E-04 -.182E-04
   0.841E+01 0.784E+02 -.261E+02   -.863E+01 -.777E+02 0.259E+02   -.105E-01 0.132E+00 0.171E-01   0.112E-03 -.958E-05 0.197E-04
   -.108E+02 -.994E+02 -.331E+02   0.110E+02 0.988E+02 0.329E+02   0.605E-01 -.889E-01 -.316E-01   -.125E-03 0.297E-04 0.436E-05
   -.108E+02 0.995E+02 -.332E+02   0.110E+02 -.988E+02 0.329E+02   0.357E-01 0.763E-03 0.131E-01   -.145E-03 -.304E-04 0.727E-05
   0.775E+02 0.328E+02 0.112E+02   -.769E+02 -.329E+02 -.110E+02   0.660E-01 -.370E-01 0.132E-01   -.797E-04 -.241E-03 -.120E-04
 -----------------------------------------------------------------------------------------------
   -.106E+00 -.328E-01 0.180E-01   0.256E-12 -.284E-13 -.114E-12   0.106E+00 0.331E-01 -.180E-01   -.122E-03 -.220E-03 -.357E-04
 
 
 POSITION                                       TOTAL-FORCE (eV/Angst)
 -----------------------------------------------------------------------------------
      1.64500      1.64500      1.64500         0.225399     -0.762727      0.215682
      0.00000      0.00000      0.00000         0.650938     -0.124309     -0.110880
      4.93500      1.64500      4.93500        -0.152300     -0.696443     -0.216362
      4.93500      1.64500      1.64500        -0.162894     -0.713832      0.214842
      0.00000      3.29000      3.29000         0.607728      0.067377      0.143733
      3.29000      0.00000      0.00000        -0.539028     -0.173103     -0.189481
      1.64500      4.93500      1.64500         0.154887      0.504844      0.162272
      3.29000      0.00000      3.29000        -0.513115     -0.164724      0.194360
      3.29000      3.29000      0.00000        -0.763516      0.172005     -0.198623
      3.29000      3.29000      3.29000        -0.830134      0.193338      0.195920
      0.00000      3.29000      0.00000         0.736942      0.207976     -0.219387
      4.93500      4.93500      1.64500        -0.231764      0.846283      0.227831
      4.93500      4.93500      4.93500        -0.233137      0.868368     -0.239464
      1.64500      1.64500      4.93500         0.213354     -0.618501     -0.217963
      1.64500      4.93500      4.93500         0.194207      0.624134     -0.217374
      0.00000      0.00000      3.29000         0.642431     -0.230687      0.254895
 -----------------------------------------------------------------------------------
    total drift:                                0.000016      0.000053     -0.000006


--------------------------------------------------------------------------------------------------------



  FREE ENERGIE OF THE ION-ELECTRON SYSTEM (eV)
  ---------------------------------------------------
  free  energy   TOTEN  =      -182.41129522 eV

  energy  without entropy=     -182.40599869  energy(sigma->0) =     -182.40864695
 


--------------------------------------------------------------------------------------------------------


    POTLOK:  cpu time      0.0063: real time      0.0063


--------------------------------------------------------------------------------------------------------


     LOOP+:  cpu time     92.7952: real time     94.6897
    4ORBIT:  cpu time      0.0000: real time      0.0000

 total amount of memory used by VASP MPI-rank0    47987. kBytes
=======================================================================

   base      :      30000. kBytes
   nonl-proj :       8332. kBytes
   fftplans  :        456. kBytes
   grid      :        919. kBytes
   one-center:         31. kBytes
   wavefun   :       8249. kBytes
 
  
  
 General timing and accounting informations for this job:
 ========================================================
  
                  Total CPU time used (sec):       97.405
                            User time (sec):       96.272
                          System time (sec):        1.133
                         Elapsed time (sec):      101.061
  
                   Maximum memory used (kb):       89560.
                   Average memory used (kb):          N/A
  
                          Minor page faults:        14091
                          Major page faults:            0
                 Voluntary context switches:          206
