 vasp.6.3.1 04May22 (build Jul 26 2022 04:02:40) complex                        
  
 executed on             LinuxIFC date 2023.11.30  10:39:39
 running on   48 total cores
 distrk:  each k-point on   48 cores,    1 groups
 distr:  one band on NCORE=  12 cores,    4 groups


--------------------------------------------------------------------------------------------------------


 INCAR:
   ISTART = 0
   NWRITE = 2
   PREC = Accurate
   ENCUT = 250
   GGA = PE
   NSW = 0
   ISIF = 2
   ISYM = 2
   NBLOCK = 1
   KBLOCK = 1
   IBRION = -1
   NELM = 80
   EDIFF = 1E-08
   EDIFFG = -0.01
   ALGO = Normal
   LDIAG = .TRUE.
   LREAL = .FALSE.
   ISMEAR = 0
   SIGMA = 0.02
   ICHARG = 2
   LPLANE = .TRUE.
   NPAR = 4
   LSCALU = .FALSE.
   NSIM = 4
   LWAVE = .FALSE.
   LCHARG = .FALSE.
   ICORELEVEL = 1

 POTCAR:    PAW_PBE Nb_sv 25May2007               
 POTCAR:    PAW_PBE Mo_sv 02Feb2006               
 POTCAR:    PAW_PBE Ta_pv 07Sep2000               
 POTCAR:    PAW_PBE W_sv 04Sep2015                
 POTCAR:    PAW_PBE Nb_sv 25May2007               
   SHA256 =  0e8fc07c9fcd1164cf2ade22d0399fd28f85e91cd773dfa6cf24839a48c95e24 Nb_sv/POTCAR          
   COPYR  = (c) Copyright 25May2007 Georg Kresse                                                    
   COPYR  = This file is part of the software VASP. Any use, copying, and all other rights are regul
   COPYR  = If you do not have a valid VASP license, you may not use, copy or distribute this file. 
   VRHFIN =Nb: 4p5s4d                                                                               
   LEXCH  = PE                                                                                      
   EATOM  =  1555.1913 eV,  114.3033 Ry                                                             
                                                                                                    
   TITEL  = PAW_PBE Nb_sv 25May2007                                                                 
   LULTRA =        F    use ultrasoft PP ?                                                          
   IUNSCR =        1    unscreen: 0-lin 1-nonlin 2-no                                               
   RPACOR =    1.800    partial core radius                                                         
   POMASS =   92.910; ZVAL   =   13.000    mass and valenz                                          
   RCORE  =    2.400    outmost cutoff radius                                                       
   RWIGS  =    2.400; RWIGS  =    1.270    wigner-seitz radius (au A)                               
   ENMAX  =  293.235; ENMIN  =  219.927 eV                                                          
   ICORE  =        3    local potential                                                             
   LCOR   =        T    correct aug charges                                                         
   LPAW   =        T    paw PP                                                                      
   EAUG   =  455.659                                                                                
   DEXC   =    0.000                                                                                
   RMAX   =    2.456    core radius for proj-oper                                                   
   RAUG   =    1.300    factor for augmentation sphere                                              
   RDEP   =    2.451    radius for radial grids                                                     
   RDEPT  =    1.956    core radius for aug-charge                                                  
                                                                                                    
   Atomic configuration                                                                             
   11 entries                                                                                       
     n  l   j            E        occ.                                                              
     1  0  0.50    -18805.2457   2.0000                                                             
     2  0  0.50     -2630.2869   2.0000                                                             
     2  1  1.50     -2348.4046   6.0000                                                             
     3  0  0.50      -438.8757   2.0000                                                             
     3  1  1.50      -346.7588   6.0000                                                             
     3  2  2.50      -196.2560  10.0000                                                             
     4  0  0.50       -58.3859   2.0000                                                             
     5  0  0.50        -3.9816   1.0000                                                             
     4  1  1.50       -34.5141   6.0000                                                             
     4  2  2.50        -3.0408   4.0000                                                             
     4  3  2.50        -1.3606   0.0000                                                             
   Description                                                                                      
     l       E           TYP  RCUT    TYP  RCUT                                                     
     0    -58.3859094     23  2.200                                                                 
     0     -3.9816262     23  2.200                                                                 
     1    -34.5140738     23  2.200                                                                 
     1     13.6058260     23  2.200                                                                 
     2     -3.0408010     23  2.200                                                                 
     2     -0.1283038     23  2.200                                                                 
     3     -1.3605826     23  2.400                                                                 
  local pseudopotential read in
  partial core-charges read in
  partial kinetic energy density read in
  atomic valenz-charges read in
  non local Contribution for L=           0  read in
    real space projection operators read in
  non local Contribution for L=           0  read in
    real space projection operators read in
  non local Contribution for L=           1  read in
    real space projection operators read in
  non local Contribution for L=           1  read in
    real space projection operators read in
  non local Contribution for L=           2  read in
    real space projection operators read in
  non local Contribution for L=           2  read in
    real space projection operators read in
    PAW grid and wavefunctions read in
 
   number of l-projection  operators is LMAX  =           6
   number of lm-projection operators is LMMAX =          18
 
 POTCAR:    PAW_PBE Mo_sv 02Feb2006               
   SHA256 =  2731df97e41766cc617548c5a8267718fdef1f509ac6bafa01e745abea2bdfaa Mo_sv/POTCAR          
   COPYR  = (c) Copyright 02Feb2006 Georg Kresse                                                    
   COPYR  = This file is part of the software VASP. Any use, copying, and all other rights are regul
   COPYR  = If you do not have a valid VASP license, you may not use, copy or distribute this file. 
   VRHFIN =Mo: 4p5s4d                                                                               
   LEXCH  = PE                                                                                      
   EATOM  =  1862.2866 eV,  136.8742 Ry                                                             
                                                                                                    
   TITEL  = PAW_PBE Mo_sv 02Feb2006                                                                 
   LULTRA =        F    use ultrasoft PP ?                                                          
   IUNSCR =        1    unscreen: 0-lin 1-nonlin 2-no                                               
   RPACOR =    2.200    partial core radius                                                         
   POMASS =   95.940; ZVAL   =   14.000    mass and valenz                                          
   RCORE  =    2.500    outmost cutoff radius                                                       
   RWIGS  =    2.750; RWIGS  =    1.455    wigner-seitz radius (au A)                               
   ENMAX  =  242.676; ENMIN  =  182.007 eV                                                          
   ICORE  =        3    local potential                                                             
   LCOR   =        T    correct aug charges                                                         
   LPAW   =        T    paw PP                                                                      
   EAUG   =  446.014                                                                                
   DEXC   =    0.000                                                                                
   RMAX   =    2.563    core radius for proj-oper                                                   
   RAUG   =    1.300    factor for augmentation sphere                                              
   RDEP   =    2.641    radius for radial grids                                                     
   RDEPT  =    2.031    core radius for aug-charge                                                  
                                                                                                    
   Atomic configuration                                                                             
   11 entries                                                                                       
     n  l   j            E        occ.                                                              
     1  0  0.50    -19819.0341   2.0000                                                             
     2  0  0.50     -2799.0127   2.0000                                                             
     2  1  1.50     -2502.0276   6.0000                                                             
     3  0  0.50      -476.4449   2.0000                                                             
     3  1  1.50      -379.1496   6.0000                                                             
     3  2  2.50      -220.9367  10.0000                                                             
     4  0  0.50       -64.3378   2.0000                                                             
     5  0  0.50        -4.0862   1.0000                                                             
     4  1  1.50       -38.4773   6.0000                                                             
     4  2  2.50        -3.7535   5.0000                                                             
     4  3  2.50        -1.3606   0.0000                                                             
   Description                                                                                      
     l       E           TYP  RCUT    TYP  RCUT                                                     
     0    -64.3377829     23  2.100                                                                 
     0     -4.0861640     23  2.400                                                                 
     1    -38.4772993     23  2.100                                                                 
     1     13.6058260     23  2.100                                                                 
     2     -3.7534941     23  2.400                                                                 
     2     -5.1140767     23  2.400                                                                 
     3     -4.0817478     23  2.500                                                                 
  local pseudopotential read in
  partial core-charges read in
  partial kinetic energy density read in
  atomic valenz-charges read in
  non local Contribution for L=           0  read in
    real space projection operators read in
  non local Contribution for L=           0  read in
    real space projection operators read in
  non local Contribution for L=           1  read in
    real space projection operators read in
  non local Contribution for L=           1  read in
    real space projection operators read in
  non local Contribution for L=           2  read in
    real space projection operators read in
  non local Contribution for L=           2  read in
    real space projection operators read in
    PAW grid and wavefunctions read in
 
   number of l-projection  operators is LMAX  =           6
   number of lm-projection operators is LMMAX =          18
 
 POTCAR:    PAW_PBE Ta_pv 07Sep2000               
   SHA256 =  00d0a14a36c127416459414afb8617d9754996fffa60a2465888e660b20a452f Ta_pv/POTCAR          
   COPYR  = (c) Copyright 07Sep2000 Georg Kresse                                                    
   COPYR  = This file is part of the software VASP. Any use, copying, and all other rights are regul
   COPYR  = If you do not have a valid VASP license, you may not use, copy or distribute this file. 
   VRHFIN =Ta:  5p6s5d                                                                              
   LEXCH  = PE                                                                                      
   EATOM  =  1047.1984 eV,   76.9669 Ry                                                             
                                                                                                    
   TITEL  = PAW_PBE Ta_pv 07Sep2000                                                                 
   LULTRA =        F    use ultrasoft PP ?                                                          
   IUNSCR =        1    unscreen: 0-lin 1-nonlin 2-no                                               
   RPACOR =    2.330    partial core radius                                                         
   POMASS =  180.948; ZVAL   =   11.000    mass and valenz                                          
   RCORE  =    2.500    outmost cutoff radius                                                       
   RWIGS  =    2.840; RWIGS  =    1.503    wigner-seitz radius (au A)                               
   ENMAX  =  223.667; ENMIN  =  167.750 eV                                                          
   RCLOC  =    2.205    cutoff for local pot                                                        
   LCOR   =        T    correct aug charges                                                         
   LPAW   =        T    paw PP                                                                      
   EAUG   =  377.421                                                                                
   DEXC   =    0.000                                                                                
   RMAX   =    2.551    core radius for proj-oper                                                   
   RAUG   =    1.300    factor for augmentation sphere                                              
   RDEP   =    2.526    radius for radial grids                                                     
   RDEPT  =    2.132    core radius for aug-charge                                                  
                                                                                                    
   Atomic configuration                                                                             
   15 entries                                                                                       
     n  l   j            E        occ.                                                              
     1  0  0.50    -67341.2801   2.0000                                                             
     2  0  0.50    -11566.9369   2.0000                                                             
     2  1  1.50    -10134.1175   6.0000                                                             
     3  0  0.50     -2648.5614   2.0000                                                             
     3  1  1.50     -2222.6006   6.0000                                                             
     3  2  2.50     -1726.3114  10.0000                                                             
     4  0  0.50      -538.6957   2.0000                                                             
     4  1  1.50      -399.0125   6.0000                                                             
     4  2  2.50      -220.3955  10.0000                                                             
     4  3  3.50       -23.0371  14.0000                                                             
     5  0  0.50       -71.2900   2.0000                                                             
     5  1  1.50       -37.8224   6.0000                                                             
     5  2  2.50        -2.6455   4.0000                                                             
     6  0  0.50        -4.9623   1.0000                                                             
     5  3  2.50        -1.3606   0.0000                                                             
   Description                                                                                      
     l       E           TYP  RCUT    TYP  RCUT                                                     
     1    -37.8224449     23  2.500                                                                 
     1      1.3605826     23  2.500                                                                 
     2     -2.6454718     23  2.500                                                                 
     2     -0.6258570     23  2.500                                                                 
     0     -4.9622674     23  2.500                                                                 
     0      4.7531427     23  2.500                                                                 
  local pseudopotential read in
  partial core-charges read in
  partial kinetic energy density read in
  atomic valenz-charges read in
  non local Contribution for L=           1  read in
    real space projection operators read in
  non local Contribution for L=           1  read in
    real space projection operators read in
  non local Contribution for L=           2  read in
    real space projection operators read in
  non local Contribution for L=           2  read in
    real space projection operators read in
  non local Contribution for L=           0  read in
    real space projection operators read in
  non local Contribution for L=           0  read in
    real space projection operators read in
    PAW grid and wavefunctions read in
 
   number of l-projection  operators is LMAX  =           6
   number of lm-projection operators is LMMAX =          18
 
 POTCAR:    PAW_PBE W_sv 04Sep2015                
   SHA256 =  931c2d770f65867ef30f3db3421922900fc0890ebac5c3e12f63b6a2064023d7 W_sv/POTCAR           
   COPYR  = (c) Copyright 04Sep2015 Georg Kresse                                                    
   COPYR  = This file is part of the software VASP. Any use, copying, and all other rights are regul
   COPYR  = If you do not have a valid VASP license, you may not use, copy or distribute this file. 
   VRHFIN =W : 5p6s5d                                                                               
   LEXCH  = PE                                                                                      
   EATOM  =  1865.5791 eV,  137.1162 Ry                                                             
                                                                                                    
   TITEL  = PAW_PBE W_sv 04Sep2015                                                                  
   LULTRA =        F    use ultrasoft PP ?                                                          
   IUNSCR =        1    unscreen: 0-lin 1-nonlin 2-no                                               
   RPACOR =    2.330    partial core radius                                                         
   POMASS =  183.850; ZVAL   =   14.000    mass and valenz                                          
   RCORE  =    2.500    outmost cutoff radius                                                       
   RWIGS  =    2.750; RWIGS  =    1.455    wigner-seitz radius (au A)                               
   ENMAX  =  223.057; ENMIN  =  167.293 eV                                                          
   ICORE  =        3    local potential                                                             
   LCOR   =        T    correct aug charges                                                         
   LPAW   =        T    paw PP                                                                      
   EAUG   =  373.438                                                                                
   DEXC   =    0.000                                                                                
   RMAX   =    2.565    core radius for proj-oper                                                   
   RAUG   =    1.300    factor for augmentation sphere                                              
   RDEP   =    2.539    radius for radial grids                                                     
   RDEPT  =    2.126    core radius for aug-charge                                                  
                                                                                                    
   Atomic configuration                                                                             
   15 entries                                                                                       
     n  l   j            E        occ.                                                              
     1  0  0.50    -69465.5834   2.0000                                                             
     2  0  0.50    -11986.2640   2.0000                                                             
     2  1  1.50    -10479.8613   6.0000                                                             
     3  0  0.50     -2759.0756   2.0000                                                             
     3  1  1.50     -2313.1855   6.0000                                                             
     3  2  2.50     -1801.1183  10.0000                                                             
     4  0  0.50      -567.6789   2.0000                                                             
     4  1  1.50      -421.4692   6.0000                                                             
     4  2  2.50      -236.3471  10.0000                                                             
     4  3  3.50       -31.2665  14.0000                                                             
     5  0  0.50       -77.1084   2.0000                                                             
     6  0  0.50        -5.1438   1.0000                                                             
     5  1  1.50       -41.3856   6.0000                                                             
     5  2  2.50        -3.3185   5.0000                                                             
     5  3  2.50        -1.3606   0.0000                                                             
   Description                                                                                      
     l       E           TYP  RCUT    TYP  RCUT                                                     
     0    -77.1084470     23  2.100                                                                 
     0     -5.1437956     23  2.300                                                                 
     1    -41.3855615     23  2.500                                                                 
     1     -2.7211652     23  2.500                                                                 
     2     -3.3185025     23  2.500                                                                 
     2     -1.5965151     23  2.500                                                                 
     3     -1.3605826     23  2.500                                                                 
  local pseudopotential read in
  partial core-charges read in
  partial kinetic energy density read in
  kinetic energy density of atom read in
  atomic valenz-charges read in
  non local Contribution for L=           0  read in
    real space projection operators read in
  non local Contribution for L=           0  read in
    real space projection operators read in
  non local Contribution for L=           1  read in
    real space projection operators read in
  non local Contribution for L=           1  read in
    real space projection operators read in
  non local Contribution for L=           2  read in
    real space projection operators read in
  non local Contribution for L=           2  read in
    real space projection operators read in
    PAW grid and wavefunctions read in
 
   number of l-projection  operators is LMAX  =           6
   number of lm-projection operators is LMMAX =          18
 
 -----------------------------------------------------------------------------
|                                                                             |
|               ----> ADVICE to this user running VASP <----                  |
|                                                                             |
|     You have a (more or less) 'large supercell' and for larger cells it     |
|     might be more efficient to use real-space projection operators.         |
|     Therefore, try LREAL= Auto in the INCAR file.                           |
|     Mind: For very accurate calculation, you might also keep the            |
|     reciprocal projection scheme (i.e. LREAL=.FALSE.).                      |
|                                                                             |
 -----------------------------------------------------------------------------

  PAW_PBE Nb_sv 25May2007               :
 energy of atom  1       EATOM=-1555.1913
 kinetic energy error for atom=    0.2155 (will be added to EATOM!!)
  PAW_PBE Mo_sv 02Feb2006               :
 energy of atom  2       EATOM=-1862.2866
 kinetic energy error for atom=    0.1102 (will be added to EATOM!!)
  PAW_PBE Ta_pv 07Sep2000               :
 energy of atom  3       EATOM=-1047.1984
 kinetic energy error for atom=    0.0394 (will be added to EATOM!!)
  PAW_PBE W_sv 04Sep2015                :
 energy of atom  4       EATOM=-1865.5791
 kinetic energy error for atom=    0.0589 (will be added to EATOM!!)
 
 
 POSCAR: Nb-Mo-Ta-W alloy
  positions in direct lattice
  No initial velocities read in
 exchange correlation table for  LEXCH =        8
   RHO(1)=    0.500       N(1)  =     2000
   RHO(2)=  100.500       N(2)  =     4000
 


--------------------------------------------------------------------------------------------------------


 ion  position               nearest neighbor table
   1  0.625  0.250  0.250-   2 2.85   3 2.85   8 2.85  11 2.85  13 2.85  19 2.85  28 2.85  31 2.85

   2  0.500  0.000  0.500-   1 2.85   4 2.85   5 2.85  12 2.85  18 2.85  24 2.85  25 2.85  29 2.85
                            19 3.29  19 3.29
   3  0.750  0.500  0.500-   1 2.85   4 2.85   5 2.85  15 2.85  17 2.85  20 2.85  25 2.85  32 2.85
                             9 3.29  28 3.29  31 3.29   8 3.29  31 3.29   8 3.29
   4  0.625  0.250  0.750-   2 2.85   3 2.85   8 2.85  11 2.85  13 2.85  19 2.85  28 2.85  31 2.85
                             5 3.29  15 3.29  18 3.29   5 3.29
   5  0.625  0.750  0.750-   2 2.85   3 2.85   8 2.85  11 2.85  13 2.85  19 2.85  28 2.85  31 2.85
                            20 3.29  25 3.29   4 3.29  12 3.29  25 3.29   4 3.29
   6  0.250  0.000  0.500-  10 2.85  12 2.85  14 2.85  18 2.85  22 2.85  23 2.85  24 2.85  29 2.85
                            16 3.29  27 3.29   7 3.29   7 3.29  16 3.29
   7  0.250  0.000  0.000-  10 2.85  12 2.85  14 2.85  18 2.85  22 2.85  23 2.85  24 2.85  29 2.85
                            19 3.29  21 3.29  26 3.29   6 3.29   6 3.29  21 3.29
   8  0.750  0.000  0.500-   1 2.85   4 2.85   5 2.85  15 2.85  17 2.85  20 2.85  25 2.85  32 2.85
                            13 3.29  27 3.29   3 3.29  13 3.29   3 3.29
   9  0.000  0.500  0.500-  10 2.85  14 2.85  15 2.85  17 2.85  20 2.85  22 2.85  23 2.85  32 2.85
                            16 3.29  27 3.29  30 3.29   3 3.29  30 3.29  27 3.29
  10  0.125  0.250  0.250-   6 2.85   7 2.85   9 2.85  16 2.85  21 2.85  26 2.85  27 2.85  30 2.85
                            22 3.29  23 3.29  24 3.29  32 3.29  23 3.29  22 3.29
  11  0.500  0.500  0.000-   1 2.85   4 2.85   5 2.85  12 2.85  18 2.85  24 2.85  25 2.85  29 2.85
                            21 3.29  28 3.29  19 3.29  31 3.29  28 3.29  19 3.29
  12  0.375  0.750  0.750-   2 2.85   6 2.85   7 2.85  11 2.85  16 2.85  19 2.85  21 2.85  28 2.85
                            14 3.29   5 3.29  18 3.29  29 3.29  29 3.29  18 3.29
  13  0.750  0.000  0.000-   1 2.85   4 2.85   5 2.85  15 2.85  17 2.85  20 2.85  25 2.85  32 2.85
                            19 3.29  26 3.29  31 3.29   8 3.29   8 3.29  31 3.29
  14  0.125  0.750  0.750-   6 2.85   7 2.85   9 2.85  16 2.85  21 2.85  26 2.85  27 2.85  30 2.85
                            23 3.29  20 3.29  12 3.29  22 3.29  22 3.29  23 3.29
  15  0.875  0.250  0.750-   3 2.85   8 2.85   9 2.85  13 2.85  26 2.85  27 2.85  30 2.85  31 2.85
                            20 3.29  23 3.29   4 3.29  32 3.29  32 3.29  20 3.29
  16  0.250  0.500  0.500-  10 2.85  12 2.85  14 2.85  18 2.85  22 2.85  23 2.85  24 2.85  29 2.85
                             9 3.29  21 3.29  28 3.29   6 3.29  21 3.29   6 3.29
  17  0.875  0.750  0.250-   3 2.85   8 2.85   9 2.85  13 2.85  26 2.85  27 2.85  30 2.85  31 2.85
                            22 3.29  25 3.29  20 3.29  32 3.29  20 3.29  32 3.29
  18  0.375  0.250  0.750-   2 2.85   6 2.85   7 2.85  11 2.85  16 2.85  19 2.85  21 2.85  28 2.85
                             4 3.29  23 3.29  24 3.29  12 3.29  24 3.29  12 3.29
  19  0.500  0.000  0.000-   1 2.85   4 2.85   5 2.85  12 2.85  18 2.85  24 2.85  25 2.85  29 2.85
                             7 3.29  11 3.29   2 3.29  13 3.29   2 3.29  11 3.29
  20  0.875  0.750  0.750-   3 2.85   8 2.85   9 2.85  13 2.85  26 2.85  27 2.85  30 2.85  31 2.85
                             5 3.29  14 3.29  15 3.29  17 3.29  17 3.29  15 3.29
  21  0.250  0.500  0.000-  10 2.85  12 2.85  14 2.85  18 2.85  22 2.85  23 2.85  24 2.85  29 2.85
                            16 3.29   7 3.29  11 3.29  30 3.29  16 3.29   7 3.29
  22  0.125  0.750  0.250-   6 2.85   7 2.85   9 2.85  16 2.85  21 2.85  26 2.85  27 2.85  30 2.85
                            10 3.29  17 3.29  29 3.29  14 3.29  14 3.29  10 3.29
  23  0.125  0.250  0.750-   6 2.85   7 2.85   9 2.85  16 2.85  21 2.85  26 2.85  27 2.85  30 2.85
                            14 3.29  15 3.29  10 3.29  18 3.29  10 3.29  14 3.29
  24  0.375  0.250  0.250-   2 2.85   6 2.85   7 2.85  11 2.85  16 2.85  19 2.85  21 2.85  28 2.85
                            18 3.29  10 3.29  29 3.29  18 3.29  29 3.29
  25  0.625  0.750  0.250-   2 2.85   3 2.85   8 2.85  11 2.85  13 2.85  19 2.85  28 2.85  31 2.85
                            17 3.29  29 3.29   5 3.29   5 3.29
  26  0.000  0.000  0.000-  10 2.85  14 2.85  15 2.85  17 2.85  20 2.85  22 2.85  23 2.85  32 2.85
                            13 3.29  27 3.29  30 3.29   7 3.29  27 3.29  30 3.29
  27  0.000  0.000  0.500-  10 2.85  14 2.85  15 2.85  17 2.85  20 2.85  22 2.85  23 2.85  32 2.85
                             9 3.29   6 3.29  26 3.29   8 3.29  26 3.29   9 3.29
  28  0.500  0.500  0.500-   1 2.85   4 2.85   5 2.85  12 2.85  18 2.85  24 2.85  25 2.85  29 2.85
                             3 3.29  16 3.29  11 3.29  11 3.29
  29  0.375  0.750  0.250-   2 2.85   6 2.85   7 2.85  11 2.85  16 2.85  19 2.85  21 2.85  28 2.85
                            22 3.29  24 3.29  25 3.29  12 3.29  12 3.29  24 3.29
  30  0.000  0.500  0.000-  10 2.85  14 2.85  15 2.85  17 2.85  20 2.85  22 2.85  23 2.85  32 2.85
                            21 3.29  26 3.29  31 3.29   9 3.29   9 3.29  26 3.29
  31  0.750  0.500  0.000-   1 2.85   4 2.85   5 2.85  15 2.85  17 2.85  20 2.85  25 2.85  32 2.85
                            13 3.29   3 3.29  30 3.29  11 3.29   3 3.29  13 3.29
  32  0.875  0.250  0.250-   3 2.85   8 2.85   9 2.85  13 2.85  26 2.85  27 2.85  30 2.85  31 2.85
                            15 3.29  17 3.29  10 3.29  15 3.29  17 3.29
 
  LATTYP: Found a simple tetragonal cell.
 ALAT       =     6.5800000000
 C/A-ratio  =     2.0000000000
  
  Lattice vectors:
  
 A1 = (   0.0000000000,   6.5800000000,   0.0000000000)
 A2 = (   0.0000000000,   0.0000000000,   6.5800000000)
 A3 = (  13.1600000000,   0.0000000000,   0.0000000000)


Analysis of symmetry for initial positions (statically):
=====================================================================
 Subroutine PRICEL returns:
 Original cell was already a primitive cell.
 

 Routine SETGRP: Setting up the symmetry group for a 
 simple tetragonal supercell.


 Subroutine GETGRP returns: Found  1 space group operations
 (whereof  1 operations were pure point group operations)
 out of a pool of 16 trial point group operations.


The static configuration has the point symmetry C_1 .


Analysis of symmetry for dynamics (positions and initial velocities):
=====================================================================
 Subroutine PRICEL returns:
 Original cell was already a primitive cell.
 

 Routine SETGRP: Setting up the symmetry group for a 
 simple tetragonal supercell.


 Subroutine GETGRP returns: Found  1 space group operations
 (whereof  1 operations were pure point group operations)
 out of a pool of 16 trial point group operations.


The dynamic configuration has the point symmetry C_1 .


 Subroutine INISYM returns: Found  1 space group operations
 (whereof  1 operations are pure point group operations),
 and found     1 'primitive' translations


----------------------------------------------------------------------------------------

                                     Primitive cell                                     

  volume of cell :     569.7806

  direct lattice vectors                    reciprocal lattice vectors
    13.160000000  0.000000000  0.000000000     0.075987842  0.000000000  0.000000000
     0.000000000  6.580000000  0.000000000     0.000000000  0.151975684  0.000000000
     0.000000000  0.000000000  6.580000000     0.000000000  0.000000000  0.151975684

  length of vectors
    13.160000000  6.580000000  6.580000000     0.075987842  0.151975684  0.151975684

  position of ions in fractional coordinates (direct lattice)
     0.625000000  0.250000000  0.250000000
     0.500000000  0.000000000  0.500000000
     0.750000000  0.500000000  0.500000000
     0.625000000  0.250000000  0.750000000
     0.625000000  0.750000000  0.750000000
     0.250000000  0.000000000  0.500000000
     0.250000000  0.000000000  0.000000000
     0.750000000  0.000000000  0.500000000
     0.000000000  0.500000000  0.500000000
     0.125000000  0.250000000  0.250000000
     0.500000000  0.500000000  0.000000000
     0.375000000  0.750000000  0.750000000
     0.750000000  0.000000000  0.000000000
     0.125000000  0.750000000  0.750000000
     0.875000000  0.250000000  0.750000000
     0.250000000  0.500000000  0.500000000
     0.875000000  0.750000000  0.250000000
     0.375000000  0.250000000  0.750000000
     0.500000000  0.000000000  0.000000000
     0.875000000  0.750000000  0.750000000
     0.250000000  0.500000000  0.000000000
     0.125000000  0.750000000  0.250000000
     0.125000000  0.250000000  0.750000000
     0.375000000  0.250000000  0.250000000
     0.625000000  0.750000000  0.250000000
     0.000000000  0.000000000  0.000000000
     0.000000000  0.000000000  0.500000000
     0.500000000  0.500000000  0.500000000
     0.375000000  0.750000000  0.250000000
     0.000000000  0.500000000  0.000000000
     0.750000000  0.500000000  0.000000000
     0.875000000  0.250000000  0.250000000

  ion indices of the primitive-cell ions
   primitive index   ion index
                 1           1
                 2           2
                 3           3
                 4           4
                 5           5
                 6           6
                 7           7
                 8           8
                 9           9
                10          10
                11          11
                12          12
                13          13
                14          14
                15          15
                16          16
                17          17
                18          18
                19          19
                20          20
                21          21
                22          22
                23          23
                24          24
                25          25
                26          26
                27          27
                28          28
                29          29
                30          30
                31          31
                32          32

----------------------------------------------------------------------------------------

 
 
 KPOINTS: K-Spacing Value to Generate K-Mesh: 0.03

Automatic generation of k-mesh.
 Grid dimensions read from file:
 generate k-points for:    3    5    5

 Generating k-lattice:

  Cartesian coordinates                     Fractional coordinates (reciprocal lattice)
     0.025329281  0.000000000  0.000000000     0.333333333  0.000000000  0.000000000
     0.000000000  0.030395137  0.000000000     0.000000000  0.200000000  0.000000000
     0.000000000  0.000000000  0.030395137     0.000000000  0.000000000  0.200000000

  Length of vectors
     0.025329281  0.030395137  0.030395137

  Shift w.r.t. Gamma in fractional coordinates (k-lattice)
     0.000000000  0.000000000  0.000000000

 
 Subroutine IBZKPT returns following result:
 ===========================================
 
 Found     38 irreducible k-points:
 
 Following reciprocal coordinates:
            Coordinates               Weight
  0.000000  0.000000  0.000000      1.000000
  0.333333  0.000000  0.000000      2.000000
  0.000000  0.200000  0.000000      2.000000
  0.000000  0.000000  0.200000      2.000000
  0.333333  0.200000  0.000000      2.000000
  0.333333  0.000000  0.200000      2.000000
  0.333333 -0.200000  0.000000      2.000000
  0.333333  0.000000 -0.200000      2.000000
  0.000000  0.400000  0.000000      2.000000
  0.000000  0.000000  0.400000      2.000000
  0.333333  0.400000  0.000000      2.000000
  0.333333  0.000000  0.400000      2.000000
  0.333333 -0.400000  0.000000      2.000000
  0.333333  0.000000 -0.400000      2.000000
  0.000000  0.200000  0.200000      2.000000
  0.000000 -0.200000  0.200000      2.000000
  0.333333  0.200000  0.200000      2.000000
  0.333333 -0.200000  0.200000      2.000000
  0.333333 -0.200000 -0.200000      2.000000
  0.333333  0.200000 -0.200000      2.000000
  0.000000  0.400000  0.200000      2.000000
  0.000000 -0.200000  0.400000      2.000000
  0.000000 -0.400000  0.200000      2.000000
  0.000000  0.200000  0.400000      2.000000
  0.333333  0.400000  0.200000      2.000000
  0.333333 -0.200000  0.400000      2.000000
  0.333333 -0.400000 -0.200000      2.000000
  0.333333  0.200000 -0.400000      2.000000
 -0.333333 -0.400000  0.200000      2.000000
 -0.333333  0.200000  0.400000      2.000000
 -0.333333  0.400000 -0.200000      2.000000
 -0.333333 -0.200000 -0.400000      2.000000
  0.000000  0.400000  0.400000      2.000000
  0.000000 -0.400000  0.400000      2.000000
  0.333333  0.400000  0.400000      2.000000
  0.333333 -0.400000  0.400000      2.000000
  0.333333 -0.400000 -0.400000      2.000000
  0.333333  0.400000 -0.400000      2.000000
 
 Following cartesian coordinates:
            Coordinates               Weight
  0.000000  0.000000  0.000000      1.000000
  0.025329  0.000000  0.000000      2.000000
  0.000000  0.030395  0.000000      2.000000
  0.000000  0.000000  0.030395      2.000000
  0.025329  0.030395  0.000000      2.000000
  0.025329  0.000000  0.030395      2.000000
  0.025329 -0.030395  0.000000      2.000000
  0.025329  0.000000 -0.030395      2.000000
  0.000000  0.060790  0.000000      2.000000
  0.000000  0.000000  0.060790      2.000000
  0.025329  0.060790  0.000000      2.000000
  0.025329  0.000000  0.060790      2.000000
  0.025329 -0.060790  0.000000      2.000000
  0.025329  0.000000 -0.060790      2.000000
  0.000000  0.030395  0.030395      2.000000
  0.000000 -0.030395  0.030395      2.000000
  0.025329  0.030395  0.030395      2.000000
  0.025329 -0.030395  0.030395      2.000000
  0.025329 -0.030395 -0.030395      2.000000
  0.025329  0.030395 -0.030395      2.000000
  0.000000  0.060790  0.030395      2.000000
  0.000000 -0.030395  0.060790      2.000000
  0.000000 -0.060790  0.030395      2.000000
  0.000000  0.030395  0.060790      2.000000
  0.025329  0.060790  0.030395      2.000000
  0.025329 -0.030395  0.060790      2.000000
  0.025329 -0.060790 -0.030395      2.000000
  0.025329  0.030395 -0.060790      2.000000
 -0.025329 -0.060790  0.030395      2.000000
 -0.025329  0.030395  0.060790      2.000000
 -0.025329  0.060790 -0.030395      2.000000
 -0.025329 -0.030395 -0.060790      2.000000
  0.000000  0.060790  0.060790      2.000000
  0.000000 -0.060790  0.060790      2.000000
  0.025329  0.060790  0.060790      2.000000
  0.025329 -0.060790  0.060790      2.000000
  0.025329 -0.060790 -0.060790      2.000000
  0.025329  0.060790 -0.060790      2.000000
 


--------------------------------------------------------------------------------------------------------




 Dimension of arrays:
   k-points           NKPTS =     38   k-points in BZ     NKDIM =     38   number of bands    NBANDS=    252
   number of dos      NEDOS =    301   number of ions     NIONS =     32
   non local maximal  LDIM  =      6   non local SUM 2l+1 LMDIM =     18
   total plane-waves  NPLWV =  90720
   max r-space proj   IRMAX =      1   max aug-charges    IRDMAX=   9287
   dimension x,y,z NGX =    70 NGY =   36 NGZ =   36
   dimension x,y,z NGXF=   140 NGYF=   72 NGZF=   72
   support grid    NGXF=   140 NGYF=   72 NGZF=   72
   ions per type =               2  11   9  10
   NGX,Y,Z   is equivalent  to a cutoff of   8.84,  9.10,  9.10 a.u.
   NGXF,Y,Z  is equivalent  to a cutoff of  17.69, 18.19, 18.19 a.u.

 SYSTEM =  unknown system                          
 POSCAR =  Nb-Mo-Ta-W alloy                        

 Startparameter for this run:
   NWRITE =      2    write-flag & timer
   PREC   = accura    normal or accurate (medium, high low for compatibility)
   ISTART =      0    job   : 0-new  1-cont  2-samecut
   ICHARG =      2    charge: 1-file 2-atom 10-const
   ISPIN  =      1    spin polarized calculation?
   LNONCOLLINEAR =      F non collinear calculations
   LSORBIT =      F    spin-orbit coupling
   INIWAV =      1    electr: 0-lowe 1-rand  2-diag
   LASPH  =      F    aspherical Exc in radial PAW
 Electronic Relaxation 1
   ENCUT  =  250.0 eV  18.37 Ry    4.29 a.u.  16.97  8.48  8.48*2*pi/ulx,y,z
   ENINI  =  250.0     initial cutoff
   ENAUG  =  455.7 eV  augmentation charge cutoff
   NELM   =     80;   NELMIN=  2; NELMDL= -5     # of ELM steps 
   EDIFF  = 0.1E-07   stopping-criterion for ELM
   LREAL  =      F    real-space projection
   NLSPLINE    = F    spline interpolate recip. space projectors
   LCOMPAT=      F    compatible to vasp.4.4
   GGA_COMPAT  = T    GGA compatible to vasp.4.4-vasp.4.6
   LMAXPAW     = -100 max onsite density
   LMAXMIX     =    2 max onsite mixed and CHGCAR
   VOSKOWN=      0    Vosko Wilk Nusair interpolation
   ROPT   =    0.00000   0.00000   0.00000   0.00000
 Ionic relaxation
   EDIFFG = -.1E-01   stopping-criterion for IOM
   NSW    =      0    number of steps for IOM
   NBLOCK =      1;   KBLOCK =      1    inner block; outer block 
   IBRION =     -1    ionic relax: 0-MD 1-quasi-New 2-CG
   NFREE  =      0    steps in history (QN), initial steepest desc. (CG)
   ISIF   =      2    stress and relaxation
   IWAVPR =     10    prediction:  0-non 1-charg 2-wave 3-comb
   ISYM   =      2    0-nonsym 1-usesym 2-fastsym
   LCORR  =      T    Harris-Foulkes like correction to forces

   POTIM  = 0.5000    time-step for ionic-motion
   TEIN   =    0.0    initial temperature
   TEBEG  =    0.0;   TEEND  =   0.0 temperature during run
   SMASS  =  -3.00    Nose mass-parameter (am)
   estimated Nose-frequenzy (Omega)   =  0.10E-29 period in steps = 0.13E+47 mass=  -0.396E-26a.u.
   SCALEE = 1.0000    scale energy and forces
   NPACO  =    256;   APACO  = 10.0  distance and # of slots for P.C.
   PSTRESS=    0.0 pullay stress

  Mass of Ions in am
   POMASS =  92.91 95.94180.95183.85
  Ionic Valenz
   ZVAL   =  13.00 14.00 11.00 14.00
  Atomic Wigner-Seitz radii
   RWIGS  =  -1.00 -1.00 -1.00 -1.00
  virtual crystal weights 
   VCA    =   1.00  1.00  1.00  1.00
   NELECT =     419.0000    total number of electrons
   NUPDOWN=      -1.0000    fix difference up-down

 DOS related values:
   EMIN   =  10.00;   EMAX   =-10.00  energy-range for DOS
   EFERMI =   0.00
   ISMEAR =     0;   SIGMA  =   0.02  broadening in eV -4-tet -1-fermi 0-gaus

 Electronic relaxation 2 (details)
   IALGO  =     38    algorithm
   LDIAG  =      T    sub-space diagonalisation (order eigenvalues)
   LSUBROT=      F    optimize rotation matrix (better conditioning)
   TURBO    =      0    0=normal 1=particle mesh
   IRESTART =      0    0=no restart 2=restart with 2 vectors
   NREBOOT  =      0    no. of reboots
   NMIN     =      0    reboot dimension
   EREF     =   0.00    reference energy to select bands
   IMIX   =      4    mixing-type and parameters
     AMIX     =   0.40;   BMIX     =  1.00
     AMIX_MAG =   1.60;   BMIX_MAG =  1.00
     AMIN     =   0.10
     WC   =   100.;   INIMIX=   1;  MIXPRE=   1;  MAXMIX= -45

 Intra band minimization:
   WEIMIN = 0.0000     energy-eigenvalue tresh-hold
   EBREAK =  0.99E-11  absolut break condition
   DEPER  =   0.30     relativ break condition  

   TIME   =   0.40     timestep for ELM

  volume/ion in A,a.u.               =      17.81       120.16
  Fermi-wavevector in a.u.,A,eV,Ry     =   1.477668  2.792388 29.708369  2.183504
  Thomas-Fermi vector in A             =   2.592044
 
 Write flags
   LWAVE        =      F    write WAVECAR
   LDOWNSAMPLE  =      F    k-point downsampling of WAVECAR
   LCHARG       =      F    write CHGCAR
   LVTOT        =      F    write LOCPOT, total local potential
   LVHAR        =      F    write LOCPOT, Hartree potential only
   LELF         =      F    write electronic localiz. function (ELF)
   LORBIT       =      0    0 simple, 1 ext, 2 COOP (PROOUT), +10 PAW based schemes


 Dipole corrections
   LMONO  =      F    monopole corrections only (constant potential shift)
   LDIPOL =      F    correct potential (dipole corrections)
   IDIPOL =      0    1-x, 2-y, 3-z, 4-all directions 
   EPSILON=  1.0000000 bulk dielectric constant

 Core level calculations are selected ICORELEVEL =  1
 Exchange correlation treatment:
   GGA     =    PE    GGA type
   LEXCH   =     8    internal setting for exchange type
   LIBXC   =     F    Libxc                    
   VOSKOWN =     0    Vosko Wilk Nusair interpolation
   LHFCALC =     F    Hartree Fock is set to
   LHFONE  =     F    Hartree Fock one center treatment
   AEXX    =    0.0000 exact exchange contribution

 Linear response parameters
   LEPSILON=     F    determine dielectric tensor
   LRPA    =     F    only Hartree local field effects (RPA)
   LNABLA  =     F    use nabla operator in PAW spheres
   LVEL    =     F    velocity operator in full k-point grid
   CSHIFT  =0.1000    complex shift for real part using Kramers Kronig
   OMEGAMAX=  -1.0    maximum frequency
   DEG_THRESHOLD= 0.2000000E-02 threshold for treating states as degnerate
   RTIME   =   -0.100 relaxation time in fs
  (WPLASMAI=    0.000 imaginary part of plasma frequency in eV, 0.658/RTIME)
   DFIELD  = 0.0000000 0.0000000 0.0000000 field for delta impulse in time
 
  Optional k-point grid parameters
   LKPOINTS_OPT  =     F    use optional k-point grid
   KPOINTS_OPT_MODE=     1    mode for optional k-point grid
 
 Orbital magnetization related:
   ORBITALMAG=     F  switch on orbital magnetization
   LCHIMAG   =     F  perturbation theory with respect to B field
   DQ        =  0.001000  dq finite difference perturbation B field
   LLRAUG    =     F  two centre corrections for induced B field



--------------------------------------------------------------------------------------------------------


 Static calculation
 charge density and potential will be updated during run
 non-spin polarized calculation
 Variant of blocked Davidson
 Davidson routine will perform the subspace rotation
 perform sub-space diagonalisation
    after iterative eigenvector-optimisation
 modified Broyden-mixing scheme, WC =      100.0
 initial mixing is a Kerker type mixing with AMIX =  0.4000 and BMIX =      1.0000
 Hartree-type preconditioning will be used
 using additional bands           42
 reciprocal scheme for non local part
 use partial core corrections
 calculate Harris-corrections to forces 
   (improved forces if not selfconsistent)
 use gradient corrections 
 use of overlap-Matrix (Vanderbilt PP)
 Gauss-broadening in eV      SIGMA  =   0.02


--------------------------------------------------------------------------------------------------------


  energy-cutoff  :      250.00
  volume of cell :      569.78
      direct lattice vectors                 reciprocal lattice vectors
    13.160000000  0.000000000  0.000000000     0.075987842  0.000000000  0.000000000
     0.000000000  6.580000000  0.000000000     0.000000000  0.151975684  0.000000000
     0.000000000  0.000000000  6.580000000     0.000000000  0.000000000  0.151975684

  length of vectors
    13.160000000  6.580000000  6.580000000     0.075987842  0.151975684  0.151975684


 
 k-points in units of 2pi/SCALE and weight: K-Spacing Value to Generate K-Mesh: 0.03
   0.00000000  0.00000000  0.00000000       0.013
   0.02532928  0.00000000  0.00000000       0.027
   0.00000000  0.03039514  0.00000000       0.027
   0.00000000  0.00000000  0.03039514       0.027
   0.02532928  0.03039514  0.00000000       0.027
   0.02532928  0.00000000  0.03039514       0.027
   0.02532928 -0.03039514  0.00000000       0.027
   0.02532928  0.00000000 -0.03039514       0.027
   0.00000000  0.06079027  0.00000000       0.027
   0.00000000  0.00000000  0.06079027       0.027
   0.02532928  0.06079027  0.00000000       0.027
   0.02532928  0.00000000  0.06079027       0.027
   0.02532928 -0.06079027  0.00000000       0.027
   0.02532928  0.00000000 -0.06079027       0.027
   0.00000000  0.03039514  0.03039514       0.027
   0.00000000 -0.03039514  0.03039514       0.027
   0.02532928  0.03039514  0.03039514       0.027
   0.02532928 -0.03039514  0.03039514       0.027
   0.02532928 -0.03039514 -0.03039514       0.027
   0.02532928  0.03039514 -0.03039514       0.027
   0.00000000  0.06079027  0.03039514       0.027
   0.00000000 -0.03039514  0.06079027       0.027
   0.00000000 -0.06079027  0.03039514       0.027
   0.00000000  0.03039514  0.06079027       0.027
   0.02532928  0.06079027  0.03039514       0.027
   0.02532928 -0.03039514  0.06079027       0.027
   0.02532928 -0.06079027 -0.03039514       0.027
   0.02532928  0.03039514 -0.06079027       0.027
  -0.02532928 -0.06079027  0.03039514       0.027
  -0.02532928  0.03039514  0.06079027       0.027
  -0.02532928  0.06079027 -0.03039514       0.027
  -0.02532928 -0.03039514 -0.06079027       0.027
   0.00000000  0.06079027  0.06079027       0.027
   0.00000000 -0.06079027  0.06079027       0.027
   0.02532928  0.06079027  0.06079027       0.027
   0.02532928 -0.06079027  0.06079027       0.027
   0.02532928 -0.06079027 -0.06079027       0.027
   0.02532928  0.06079027 -0.06079027       0.027
 
 k-points in reciprocal lattice and weights: K-Spacing Value to Generate K-Mesh: 0.03
   0.00000000  0.00000000  0.00000000       0.013
   0.33333333  0.00000000  0.00000000       0.027
   0.00000000  0.20000000  0.00000000       0.027
   0.00000000  0.00000000  0.20000000       0.027
   0.33333333  0.20000000  0.00000000       0.027
   0.33333333  0.00000000  0.20000000       0.027
   0.33333333 -0.20000000  0.00000000       0.027
   0.33333333  0.00000000 -0.20000000       0.027
   0.00000000  0.40000000  0.00000000       0.027
   0.00000000  0.00000000  0.40000000       0.027
   0.33333333  0.40000000  0.00000000       0.027
   0.33333333  0.00000000  0.40000000       0.027
   0.33333333 -0.40000000  0.00000000       0.027
   0.33333333  0.00000000 -0.40000000       0.027
   0.00000000  0.20000000  0.20000000       0.027
   0.00000000 -0.20000000  0.20000000       0.027
   0.33333333  0.20000000  0.20000000       0.027
   0.33333333 -0.20000000  0.20000000       0.027
   0.33333333 -0.20000000 -0.20000000       0.027
   0.33333333  0.20000000 -0.20000000       0.027
   0.00000000  0.40000000  0.20000000       0.027
   0.00000000 -0.20000000  0.40000000       0.027
   0.00000000 -0.40000000  0.20000000       0.027
   0.00000000  0.20000000  0.40000000       0.027
   0.33333333  0.40000000  0.20000000       0.027
   0.33333333 -0.20000000  0.40000000       0.027
   0.33333333 -0.40000000 -0.20000000       0.027
   0.33333333  0.20000000 -0.40000000       0.027
  -0.33333333 -0.40000000  0.20000000       0.027
  -0.33333333  0.20000000  0.40000000       0.027
  -0.33333333  0.40000000 -0.20000000       0.027
  -0.33333333 -0.20000000 -0.40000000       0.027
   0.00000000  0.40000000  0.40000000       0.027
   0.00000000 -0.40000000  0.40000000       0.027
   0.33333333  0.40000000  0.40000000       0.027
   0.33333333 -0.40000000  0.40000000       0.027
   0.33333333 -0.40000000 -0.40000000       0.027
   0.33333333  0.40000000 -0.40000000       0.027
 
 position of ions in fractional coordinates (direct lattice) 
   0.62500000  0.25000000  0.25000000
   0.50000000  0.00000000  0.50000000
   0.75000000  0.50000000  0.50000000
   0.62500000  0.25000000  0.75000000
   0.62500000  0.75000000  0.75000000
   0.25000000  0.00000000  0.50000000
   0.25000000  0.00000000  0.00000000
   0.75000000  0.00000000  0.50000000
   0.00000000  0.50000000  0.50000000
   0.12500000  0.25000000  0.25000000
   0.50000000  0.50000000  0.00000000
   0.37500000  0.75000000  0.75000000
   0.75000000  0.00000000  0.00000000
   0.12500000  0.75000000  0.75000000
   0.87500000  0.25000000  0.75000000
   0.25000000  0.50000000  0.50000000
   0.87500000  0.75000000  0.25000000
   0.37500000  0.25000000  0.75000000
   0.50000000  0.00000000  0.00000000
   0.87500000  0.75000000  0.75000000
   0.25000000  0.50000000  0.00000000
   0.12500000  0.75000000  0.25000000
   0.12500000  0.25000000  0.75000000
   0.37500000  0.25000000  0.25000000
   0.62500000  0.75000000  0.25000000
   0.00000000  0.00000000  0.00000000
   0.00000000  0.00000000  0.50000000
   0.50000000  0.50000000  0.50000000
   0.37500000  0.75000000  0.25000000
   0.00000000  0.50000000  0.00000000
   0.75000000  0.50000000  0.00000000
   0.87500000  0.25000000  0.25000000
 
 position of ions in cartesian coordinates  (Angst):
   8.22500000  1.64500000  1.64500000
   6.58000000  0.00000000  3.29000000
   9.87000000  3.29000000  3.29000000
   8.22500000  1.64500000  4.93500000
   8.22500000  4.93500000  4.93500000
   3.29000000  0.00000000  3.29000000
   3.29000000  0.00000000  0.00000000
   9.87000000  0.00000000  3.29000000
   0.00000000  3.29000000  3.29000000
   1.64500000  1.64500000  1.64500000
   6.58000000  3.29000000  0.00000000
   4.93500000  4.93500000  4.93500000
   9.87000000  0.00000000  0.00000000
   1.64500000  4.93500000  4.93500000
  11.51500000  1.64500000  4.93500000
   3.29000000  3.29000000  3.29000000
  11.51500000  4.93500000  1.64500000
   4.93500000  1.64500000  4.93500000
   6.58000000  0.00000000  0.00000000
  11.51500000  4.93500000  4.93500000
   3.29000000  3.29000000  0.00000000
   1.64500000  4.93500000  1.64500000
   1.64500000  1.64500000  4.93500000
   4.93500000  1.64500000  1.64500000
   8.22500000  4.93500000  1.64500000
   0.00000000  0.00000000  0.00000000
   0.00000000  0.00000000  3.29000000
   6.58000000  3.29000000  3.29000000
   4.93500000  4.93500000  1.64500000
   0.00000000  3.29000000  0.00000000
   9.87000000  3.29000000  0.00000000
  11.51500000  1.64500000  1.64500000
 


--------------------------------------------------------------------------------------------------------


 k-point   1 :   0.0000 0.0000 0.0000  plane waves:    5077
 k-point   2 :   0.3333 0.0000 0.0000  plane waves:    5118
 k-point   3 :   0.0000 0.2000 0.0000  plane waves:    5099
 k-point   4 :   0.0000 0.0000 0.2000  plane waves:    5099
 k-point   5 :   0.3333 0.2000 0.0000  plane waves:    5140
 k-point   6 :   0.3333 0.0000 0.2000  plane waves:    5140
 k-point   7 :   0.3333-0.2000 0.0000  plane waves:    5140
 k-point   8 :   0.3333 0.0000-0.2000  plane waves:    5140
 k-point   9 :   0.0000 0.4000 0.0000  plane waves:    5119
 k-point  10 :   0.0000 0.0000 0.4000  plane waves:    5119
 k-point  11 :   0.3333 0.4000 0.0000  plane waves:    5127
 k-point  12 :   0.3333 0.0000 0.4000  plane waves:    5127
 k-point  13 :   0.3333-0.4000 0.0000  plane waves:    5127
 k-point  14 :   0.3333 0.0000-0.4000  plane waves:    5127
 k-point  15 :   0.0000 0.2000 0.2000  plane waves:    5124
 k-point  16 :   0.0000-0.2000 0.2000  plane waves:    5124
 k-point  17 :   0.3333 0.2000 0.2000  plane waves:    5117
 k-point  18 :   0.3333-0.2000 0.2000  plane waves:    5117
 k-point  19 :   0.3333-0.2000-0.2000  plane waves:    5117
 k-point  20 :   0.3333 0.2000-0.2000  plane waves:    5117
 k-point  21 :   0.0000 0.4000 0.2000  plane waves:    5118
 k-point  22 :   0.0000-0.2000 0.4000  plane waves:    5118
 k-point  23 :   0.0000-0.4000 0.2000  plane waves:    5118
 k-point  24 :   0.0000 0.2000 0.4000  plane waves:    5118
 k-point  25 :   0.3333 0.4000 0.2000  plane waves:    5105
 k-point  26 :   0.3333-0.2000 0.4000  plane waves:    5105
 k-point  27 :   0.3333-0.4000-0.2000  plane waves:    5105
 k-point  28 :   0.3333 0.2000-0.4000  plane waves:    5105
 k-point  29 :  -0.3333-0.4000 0.2000  plane waves:    5105
 k-point  30 :  -0.3333 0.2000 0.4000  plane waves:    5105
 k-point  31 :  -0.3333 0.4000-0.2000  plane waves:    5105
 k-point  32 :  -0.3333-0.2000-0.4000  plane waves:    5105
 k-point  33 :   0.0000 0.4000 0.4000  plane waves:    5098
 k-point  34 :   0.0000-0.4000 0.4000  plane waves:    5098
 k-point  35 :   0.3333 0.4000 0.4000  plane waves:    5088
 k-point  36 :   0.3333-0.4000 0.4000  plane waves:    5088
 k-point  37 :   0.3333-0.4000-0.4000  plane waves:    5088
 k-point  38 :   0.3333 0.4000-0.4000  plane waves:    5088

 maximum and minimum number of plane-waves per node :       464      388

 maximum number of plane-waves:      5140
 maximum index in each direction: 
   IXMAX=   17   IYMAX=    8   IZMAX=    8
   IXMIN=  -17   IYMIN=   -8   IZMIN=   -8


 parallel 3D FFT for wavefunctions:
    minimum data exchange during FFTs selected (reduces bandwidth)
 parallel 3D FFT for charge:
    minimum data exchange during FFTs selected (reduces bandwidth)


 total amount of memory used by VASP MPI-rank0    61379. kBytes
=======================================================================

   base      :      30000. kBytes
   nonl-proj :       9945. kBytes
   fftplans  :        778. kBytes
   grid      :       1458. kBytes
   one-center:         46. kBytes
   wavefun   :      19152. kBytes
 
     INWAV:  cpu time      0.0000: real time      0.0002
 Broyden mixing: mesh for mixing (old mesh)
   NGX = 33   NGY = 17   NGZ = 17
  (NGX  =140   NGY  = 72   NGZ  = 72)
  gives a total of   9537 points

 initial charge density was supplied:
 charge density of overlapping atoms calculated
 number of electron     419.0000000 magnetization 
 keeping initial charge density in first step


--------------------------------------------------------------------------------------------------------


 Maximum index for augmentation-charges          517 (set IRDMAX)


--------------------------------------------------------------------------------------------------------


 First call to EWALD:  gamma=   0.214
 Maximum number of real-space cells 2x 3x 3
 Maximum number of reciprocal cells 4x 2x 2

    FEWALD:  cpu time      0.1430: real time      0.1435


--------------------------------------- Iteration      1(   1)  ---------------------------------------


    POTLOK:  cpu time      0.3744: real time      0.4133
    SETDIJ:  cpu time      0.2507: real time      0.2521
     EDDAV:  cpu time     97.7106: real time    104.7899
       DOS:  cpu time      0.5965: real time      0.6008
    --------------------------------------------
      LOOP:  cpu time     98.9322: real time    106.0562

 eigenvalue-minimisations  : 19752
 total energy-change (2. order) : 0.4057343E+04  (-0.1641273E+05)
 number of electron     419.0000000 magnetization 
 augmentation part      419.0000000 magnetization 

 Free energy of the ion-electron system (eV)
  ---------------------------------------------------
  alpha Z        PSCENC =      3870.89844154
  Ewald energy   TEWEN  =    -43824.36839688
  -Hartree energ DENC   =     -8389.77734012
  -exchange      EXHF   =         0.00000000
  -V(xc)+E(xc)   XCENC  =      1626.86263954
  PAW double counting   =     40966.79046707   -40351.68280878
  entropy T*S    EENTRO =        -0.00126023
  eigenvalues    EBANDS =     -1514.90309085
  atomic energy  EATOM  =     51673.52452192
  Solvation  Ediel_sol  =         0.00000000
  ---------------------------------------------------
  free energy    TOTEN  =      4057.34317319 eV

  energy without entropy =     4057.34443342  energy(sigma->0) =     4057.34380331


--------------------------------------------------------------------------------------------------------




--------------------------------------- Iteration      1(   2)  ---------------------------------------


     EDDAV:  cpu time     70.0807: real time     75.0913
       DOS:  cpu time      0.4343: real time      0.4489
    --------------------------------------------
      LOOP:  cpu time     70.5150: real time     75.5402

 eigenvalue-minimisations  : 19788
 total energy-change (2. order) :-0.4133601E+04  (-0.3998283E+04)
 number of electron     419.0000000 magnetization 
 augmentation part      419.0000000 magnetization 

 Free energy of the ion-electron system (eV)
  ---------------------------------------------------
  alpha Z        PSCENC =      3870.89844154
  Ewald energy   TEWEN  =    -43824.36839688
  -Hartree energ DENC   =     -8389.77734012
  -exchange      EXHF   =         0.00000000
  -V(xc)+E(xc)   XCENC  =      1626.86263954
  PAW double counting   =     40966.79046707   -40351.68280878
  entropy T*S    EENTRO =        -0.00272406
  eigenvalues    EBANDS =     -5648.50268117
  atomic energy  EATOM  =     51673.52452192
  Solvation  Ediel_sol  =         0.00000000
  ---------------------------------------------------
  free energy    TOTEN  =       -76.25788096 eV

  energy without entropy =      -76.25515690  energy(sigma->0) =      -76.25651893


--------------------------------------------------------------------------------------------------------




--------------------------------------- Iteration      1(   3)  ---------------------------------------


     EDDAV:  cpu time     48.6981: real time     50.9354
       DOS:  cpu time      0.5522: real time      0.5803
    --------------------------------------------
      LOOP:  cpu time     49.2503: real time     51.5157

 eigenvalue-minimisations  : 26664
 total energy-change (2. order) :-0.3049596E+03  (-0.2862460E+03)
 number of electron     419.0000000 magnetization 
 augmentation part      419.0000000 magnetization 

 Free energy of the ion-electron system (eV)
  ---------------------------------------------------
  alpha Z        PSCENC =      3870.89844154
  Ewald energy   TEWEN  =    -43824.36839688
  -Hartree energ DENC   =     -8389.77734012
  -exchange      EXHF   =         0.00000000
  -V(xc)+E(xc)   XCENC  =      1626.86263954
  PAW double counting   =     40966.79046707   -40351.68280878
  entropy T*S    EENTRO =        -0.00346124
  eigenvalues    EBANDS =     -5953.46157464
  atomic energy  EATOM  =     51673.52452192
  Solvation  Ediel_sol  =         0.00000000
  ---------------------------------------------------
  free energy    TOTEN  =      -381.21751160 eV

  energy without entropy =     -381.21405036  energy(sigma->0) =     -381.21578098


--------------------------------------------------------------------------------------------------------




--------------------------------------- Iteration      1(   4)  ---------------------------------------


     EDDAV:  cpu time     84.6930: real time     90.9849
       DOS:  cpu time      0.4485: real time      0.4501
    --------------------------------------------
      LOOP:  cpu time     85.1415: real time     91.4350

 eigenvalue-minimisations  : 24880
 total energy-change (2. order) :-0.1617332E+02  (-0.1567166E+02)
 number of electron     419.0000000 magnetization 
 augmentation part      419.0000000 magnetization 

 Free energy of the ion-electron system (eV)
  ---------------------------------------------------
  alpha Z        PSCENC =      3870.89844154
  Ewald energy   TEWEN  =    -43824.36839688
  -Hartree energ DENC   =     -8389.77734012
  -exchange      EXHF   =         0.00000000
  -V(xc)+E(xc)   XCENC  =      1626.86263954
  PAW double counting   =     40966.79046707   -40351.68280878
  entropy T*S    EENTRO =        -0.00387655
  eigenvalues    EBANDS =     -5969.63447687
  atomic energy  EATOM  =     51673.52452192
  Solvation  Ediel_sol  =         0.00000000
  ---------------------------------------------------
  free energy    TOTEN  =      -397.39082915 eV

  energy without entropy =     -397.38695259  energy(sigma->0) =     -397.38889087


--------------------------------------------------------------------------------------------------------




--------------------------------------- Iteration      1(   5)  ---------------------------------------


     EDDAV:  cpu time     64.7696: real time     69.7209
       DOS:  cpu time      0.0895: real time      0.1288
    CHARGE:  cpu time      0.5294: real time      0.5934
    MIXING:  cpu time      0.1174: real time      0.1699
    --------------------------------------------
      LOOP:  cpu time     65.5060: real time     70.6129

 eigenvalue-minimisations  : 32288
 total energy-change (2. order) :-0.1055228E+01  (-0.1044651E+01)
 number of electron     418.9999759 magnetization 
 augmentation part       97.2700355 magnetization 

 Broyden mixing:
  rms(total) = 0.79436E+01    rms(broyden)= 0.79419E+01
  rms(prec ) = 0.81443E+01
  weight for this iteration     100.00

 Free energy of the ion-electron system (eV)
  ---------------------------------------------------
  alpha Z        PSCENC =      3870.89844154
  Ewald energy   TEWEN  =    -43824.36839688
  -Hartree energ DENC   =     -8389.77734012
  -exchange      EXHF   =         0.00000000
  -V(xc)+E(xc)   XCENC  =      1626.86263954
  PAW double counting   =     40966.79046707   -40351.68280878
  entropy T*S    EENTRO =        -0.00387136
  eigenvalues    EBANDS =     -5970.68971047
  atomic energy  EATOM  =     51673.52452192
  Solvation  Ediel_sol  =         0.00000000
  ---------------------------------------------------
  free energy    TOTEN  =      -398.44605755 eV

  energy without entropy =     -398.44218619  energy(sigma->0) =     -398.44412187


--------------------------------------------------------------------------------------------------------




--------------------------------------- Iteration      1(   6)  ---------------------------------------


    POTLOK:  cpu time      0.4063: real time      0.4761
    SETDIJ:  cpu time      0.2299: real time      0.2309
     EDDAV:  cpu time     52.1931: real time     57.1887
       DOS:  cpu time      0.5822: real time      0.5844
    CHARGE:  cpu time      0.5382: real time      0.5400
    MIXING:  cpu time      0.1873: real time      0.1879
    --------------------------------------------
      LOOP:  cpu time     54.1369: real time     59.2080

 eigenvalue-minimisations  : 22704
 total energy-change (2. order) : 0.1623080E+02  (-0.4583928E+01)
 number of electron     418.9999745 magnetization 
 augmentation part      100.9686588 magnetization 

 Broyden mixing:
  rms(total) = 0.28780E+01    rms(broyden)= 0.28775E+01
  rms(prec ) = 0.30991E+01
  weight for this iteration     100.00

 eigenvalues of (default mixing * dielectric matrix)
  average eigenvalue GAMMA=   1.4241
  1.4241

 Free energy of the ion-electron system (eV)
  ---------------------------------------------------
  alpha Z        PSCENC =      3870.89844154
  Ewald energy   TEWEN  =    -43824.36839688
  -Hartree energ DENC   =     -7907.90291955
  -exchange      EXHF   =         0.00000000
  -V(xc)+E(xc)   XCENC  =      1603.57012042
  PAW double counting   =     48183.47800637   -47638.62066651
  entropy T*S    EENTRO =        -0.00507096
  eigenvalues    EBANDS =     -6342.78929622
  atomic energy  EATOM  =     51673.52452192
  Solvation  Ediel_sol  =         0.00000000
  ---------------------------------------------------
  free energy    TOTEN  =      -382.21525987 eV

  energy without entropy =     -382.21018891  energy(sigma->0) =     -382.21272439


--------------------------------------------------------------------------------------------------------




--------------------------------------- Iteration      1(   7)  ---------------------------------------


    POTLOK:  cpu time      0.4476: real time      0.4494
    SETDIJ:  cpu time      0.2010: real time      0.2018
     EDDAV:  cpu time     76.1088: real time     80.1324
       DOS:  cpu time      0.4358: real time      0.4375
    CHARGE:  cpu time      1.7971: real time      1.8041
    MIXING:  cpu time      0.2748: real time      0.2759
    --------------------------------------------
      LOOP:  cpu time     79.2651: real time     83.3010

 eigenvalue-minimisations  : 26336
 total energy-change (2. order) :-0.1750462E+01  (-0.3803179E+01)
 number of electron     418.9999752 magnetization 
 augmentation part      101.1181620 magnetization 

 Broyden mixing:
  rms(total) = 0.15344E+01    rms(broyden)= 0.15339E+01
  rms(prec ) = 0.29254E+01
  weight for this iteration     100.00

 eigenvalues of (default mixing * dielectric matrix)
  average eigenvalue GAMMA=   1.1285
  1.6328  0.6241

 Free energy of the ion-electron system (eV)
  ---------------------------------------------------
  alpha Z        PSCENC =      3870.89844154
  Ewald energy   TEWEN  =    -43824.36839688
  -Hartree energ DENC   =     -7756.29413557
  -exchange      EXHF   =         0.00000000
  -V(xc)+E(xc)   XCENC  =      1594.90980601
  PAW double counting   =     53060.97631704   -52547.99174697
  entropy T*S    EENTRO =        -0.00180044
  eigenvalues    EBANDS =     -6455.61872865
  atomic energy  EATOM  =     51673.52452192
  Solvation  Ediel_sol  =         0.00000000
  ---------------------------------------------------
  free energy    TOTEN  =      -383.96572201 eV

  energy without entropy =     -383.96392158  energy(sigma->0) =     -383.96482180


--------------------------------------------------------------------------------------------------------




--------------------------------------- Iteration      1(   8)  ---------------------------------------


    POTLOK:  cpu time      0.4132: real time      0.4151
    SETDIJ:  cpu time      0.3176: real time      0.3189
     EDDAV:  cpu time     42.6098: real time     45.5094
       DOS:  cpu time      0.4948: real time      0.5918
    CHARGE:  cpu time      0.2106: real time      0.2115
    MIXING:  cpu time      0.1218: real time      0.1482
    --------------------------------------------
      LOOP:  cpu time     44.1679: real time     47.1950

 eigenvalue-minimisations  : 24840
 total energy-change (2. order) : 0.5633133E+01  (-0.2037614E+01)
 number of electron     418.9999747 magnetization 
 augmentation part      101.9007194 magnetization 

 Broyden mixing:
  rms(total) = 0.65512E+00    rms(broyden)= 0.65438E+00
  rms(prec ) = 0.12584E+01
  weight for this iteration     100.00

 eigenvalues of (default mixing * dielectric matrix)
  average eigenvalue GAMMA=   1.0263
  1.7390  0.9365  0.4033

 Free energy of the ion-electron system (eV)
  ---------------------------------------------------
  alpha Z        PSCENC =      3870.89844154
  Ewald energy   TEWEN  =    -43824.36839688
  -Hartree energ DENC   =     -7683.11312221
  -exchange      EXHF   =         0.00000000
  -V(xc)+E(xc)   XCENC  =      1591.97866246
  PAW double counting   =     54273.02009075   -53770.44762689
  entropy T*S    EENTRO =        -0.00307977
  eigenvalues    EBANDS =     -6509.82208015
  atomic energy  EATOM  =     51673.52452192
  Solvation  Ediel_sol  =         0.00000000
  ---------------------------------------------------
  free energy    TOTEN  =      -378.33258924 eV

  energy without entropy =     -378.32950947  energy(sigma->0) =     -378.33104936


--------------------------------------------------------------------------------------------------------




--------------------------------------- Iteration      1(   9)  ---------------------------------------


    POTLOK:  cpu time      0.3541: real time      0.4336
    SETDIJ:  cpu time      0.2913: real time      0.3184
     EDDAV:  cpu time     63.7289: real time     70.2375
       DOS:  cpu time      0.3871: real time      0.3884
    CHARGE:  cpu time      0.4722: real time      0.4737
    MIXING:  cpu time      0.2981: real time      0.2994
    --------------------------------------------
      LOOP:  cpu time     65.5318: real time     72.1510

 eigenvalue-minimisations  : 25520
 total energy-change (2. order) : 0.2973195E+00  (-0.7613936E+00)
 number of electron     418.9999744 magnetization 
 augmentation part      102.3209505 magnetization 

 Broyden mixing:
  rms(total) = 0.58110E+00    rms(broyden)= 0.58086E+00
  rms(prec ) = 0.75734E+00
  weight for this iteration     100.00

 eigenvalues of (default mixing * dielectric matrix)
  average eigenvalue GAMMA=   0.9749
  1.8439  1.3234  0.4730  0.2596

 Free energy of the ion-electron system (eV)
  ---------------------------------------------------
  alpha Z        PSCENC =      3870.89844154
  Ewald energy   TEWEN  =    -43824.36839688
  -Hartree energ DENC   =     -7654.40117270
  -exchange      EXHF   =         0.00000000
  -V(xc)+E(xc)   XCENC  =      1590.69787580
  PAW double counting   =     54999.12544978   -54501.70650379
  entropy T*S    EENTRO =        -0.00419644
  eigenvalues    EBANDS =     -6531.80128897
  atomic energy  EATOM  =     51673.52452192
  Solvation  Ediel_sol  =         0.00000000
  ---------------------------------------------------
  free energy    TOTEN  =      -378.03526975 eV

  energy without entropy =     -378.03107331  energy(sigma->0) =     -378.03317153


--------------------------------------------------------------------------------------------------------




--------------------------------------- Iteration      1(  10)  ---------------------------------------


    POTLOK:  cpu time      0.3569: real time      0.3627
    SETDIJ:  cpu time      0.2134: real time      0.2142
     EDDAV:  cpu time     27.6949: real time     27.7971
       DOS:  cpu time      0.1347: real time      0.1351
    CHARGE:  cpu time      0.2043: real time      0.2049
    MIXING:  cpu time      0.1052: real time      0.1055
    --------------------------------------------
      LOOP:  cpu time     28.7095: real time     28.8196

 eigenvalue-minimisations  : 23992
 total energy-change (2. order) : 0.2428393E+00  (-0.1806142E+00)
 number of electron     418.9999747 magnetization 
 augmentation part      102.2443825 magnetization 

 Broyden mixing:
  rms(total) = 0.32264E+00    rms(broyden)= 0.32260E+00
  rms(prec ) = 0.36579E+00
  weight for this iteration     100.00

 eigenvalues of (default mixing * dielectric matrix)
  average eigenvalue GAMMA=   1.0578
  2.0615  1.8164  0.6870  0.4150  0.3091

 Free energy of the ion-electron system (eV)
  ---------------------------------------------------
  alpha Z        PSCENC =      3870.89844154
  Ewald energy   TEWEN  =    -43824.36839688
  -Hartree energ DENC   =     -7655.65598613
  -exchange      EXHF   =         0.00000000
  -V(xc)+E(xc)   XCENC  =      1590.74091006
  PAW double counting   =     55513.42234290   -55017.29364455
  entropy T*S    EENTRO =        -0.00449796
  eigenvalues    EBANDS =     -6529.05612136
  atomic energy  EATOM  =     51673.52452192
  Solvation  Ediel_sol  =         0.00000000
  ---------------------------------------------------
  free energy    TOTEN  =      -377.79243047 eV

  energy without entropy =     -377.78793250  energy(sigma->0) =     -377.79018148


--------------------------------------------------------------------------------------------------------




--------------------------------------- Iteration      1(  11)  ---------------------------------------


    POTLOK:  cpu time      0.0182: real time      0.0185
    SETDIJ:  cpu time      0.0027: real time      0.0027
     EDDAV:  cpu time     24.9931: real time     25.0897
       DOS:  cpu time      0.2597: real time      0.2606
    CHARGE:  cpu time      0.1656: real time      0.1662
    MIXING:  cpu time      0.0004: real time      0.0004
    --------------------------------------------
      LOOP:  cpu time     25.4397: real time     25.5381

 eigenvalue-minimisations  : 25464
 total energy-change (2. order) : 0.2340495E-01  (-0.6835122E-01)
 number of electron     418.9999747 magnetization 
 augmentation part      102.1176923 magnetization 

 Broyden mixing:
  rms(total) = 0.12647E+00    rms(broyden)= 0.12639E+00
  rms(prec ) = 0.18504E+00
  weight for this iteration     100.00

 eigenvalues of (default mixing * dielectric matrix)
  average eigenvalue GAMMA=   1.0520
  2.2804  1.9139  0.8992  0.4855  0.4341  0.2988

 Free energy of the ion-electron system (eV)
  ---------------------------------------------------
  alpha Z        PSCENC =      3870.89844154
  Ewald energy   TEWEN  =    -43824.36839688
  -Hartree energ DENC   =     -7664.18779824
  -exchange      EXHF   =         0.00000000
  -V(xc)+E(xc)   XCENC  =      1591.10975908
  PAW double counting   =     55691.29593034   -55194.88206372
  entropy T*S    EENTRO =        -0.00394067
  eigenvalues    EBANDS =     -6521.15547888
  atomic energy  EATOM  =     51673.52452192
  Solvation  Ediel_sol  =         0.00000000
  ---------------------------------------------------
  free energy    TOTEN  =      -377.76902551 eV

  energy without entropy =     -377.76508484  energy(sigma->0) =     -377.76705518


--------------------------------------------------------------------------------------------------------




--------------------------------------- Iteration      1(  12)  ---------------------------------------


    POTLOK:  cpu time      0.0063: real time      0.0064
    SETDIJ:  cpu time      0.0020: real time      0.0020
     EDDAV:  cpu time     12.3784: real time     12.4264
       DOS:  cpu time      0.0054: real time      0.0054
    CHARGE:  cpu time      0.1632: real time      0.1637
    MIXING:  cpu time      0.1439: real time      0.1444
[...]
    127       4.3720      2.00000
    128       4.4149      2.00000
    129       4.6103      2.00000
    130       4.8002      2.00000
    131       4.8911      2.00000
    132       5.0534      2.00000
    133       5.1948      2.00000
    134       5.3924      2.00000
    135       5.4142      2.00000
    136       5.4690      2.00000
    137       5.5257      2.00000
    138       5.5521      2.00000
    139       5.6059      2.00000
    140       5.6265      2.00000
    141       5.6776      2.00000
    142       5.7208      2.00000
    143       5.7681      2.00000
    144       5.7810      2.00000
    145       5.8081      2.00000
    146       5.8219      2.00000
    147       5.8583      2.00000
    148       5.8979      2.00000
    149       5.9293      2.00000
    150       6.0055      2.00000
    151       6.0290      2.00000
    152       6.0605      2.00000
    153       6.2219      2.00000
    154       6.2485      2.00000
    155       6.2779      2.00000
    156       6.3078      2.00000
    157       6.3342      2.00000
    158       6.4298      2.00000
    159       6.5736      2.00000
    160       6.6479      2.00000
    161       6.6699      2.00000
    162       6.6874      2.00000
    163       6.7008      2.00000
    164       6.7343      2.00000
    165       6.7445      2.00000
    166       6.7693      2.00000
    167       6.7997      2.00000
    168       6.8169      2.00000
    169       6.8474      2.00000
    170       6.8576      2.00000
    171       6.9081      2.00000
    172       6.9461      2.00000
    173       6.9541      2.00000
    174       7.0021      2.00000
    175       7.0552      2.00000
    176       7.0730      2.00000
    177       7.0859      2.00000
    178       7.1076      2.00000
    179       7.1204      2.00000
    180       7.1292      2.00000
    181       7.1523      2.00000
    182       7.1857      2.00000
    183       7.2203      2.00000
    184       7.2357      2.00000
    185       7.2571      2.00000
    186       7.2738      2.00000
    187       7.2917      2.00000
    188       7.3142      2.00000
    189       7.3392      2.00000
    190       7.3636      2.00000
    191       7.3821      2.00000
    192       7.4321      2.00000
    193       7.4510      2.00000
    194       7.4554      2.00000
    195       7.4965      2.00000
    196       7.5107      2.00000
    197       7.5425      2.00000
    198       7.5583      2.00000
    199       7.6057      2.00000
    200       7.6397      2.00000
    201       7.6539      2.00000
    202       7.6987      2.00000
    203       7.7383      2.00000
    204       7.7571      2.00000
    205       7.7729      2.00000
    206       7.8124      2.00000
    207       7.8469      2.00000
    208       7.8837      2.00000
    209       7.9392      2.00000
    210       7.9610      2.00000
    211       8.0497      2.00000
    212       8.2778      2.00000
    213       8.3922      2.00000
    214       8.4654      2.00000
    215       9.1045      0.00000
    216      10.0081      0.00000
    217      10.1966      0.00000
    218      10.2341      0.00000
    219      10.2958      0.00000
    220      10.3423      0.00000
    221      10.3813      0.00000
    222      10.4399      0.00000
    223      10.5259      0.00000
    224      10.5395      0.00000
    225      10.5650      0.00000
    226      10.6059      0.00000
    227      10.6992      0.00000
    228      10.7208      0.00000
    229      10.7601      0.00000
    230      10.7941      0.00000
    231      10.8038      0.00000
    232      10.8410      0.00000
    233      10.8785      0.00000
    234      10.9004      0.00000
    235      10.9322      0.00000
    236      10.9495      0.00000
    237      10.9915      0.00000
    238      11.0242      0.00000
    239      11.0773      0.00000
    240      11.1132      0.00000
    241      11.1404      0.00000
    242      11.1738      0.00000
    243      11.2245      0.00000
    244      11.2692      0.00000
    245      11.2970      0.00000
    246      11.3331      0.00000
    247      11.3850      0.00000
    248      11.4247      0.00000
    249      11.4595      0.00000
    250      11.5293      0.00000
    251      11.5472      0.00000
    252      11.6132      0.00000


--------------------------------------------------------------------------------------------------------


 soft charge-density along one line, spin component           1
         0         1         2         3         4         5         6         7         8         9
 total charge-density along one line
 
 pseudopotential strength for first ion, spin component:           1
  5.851 -20.669   0.002   0.000   0.003  -0.004  -0.001  -0.005
-20.669   9.549   0.003   0.001   0.003  -0.000  -0.000  -0.000
  0.002   0.003  -9.975   0.000   0.004   6.279  -0.000  -0.004
  0.000   0.001   0.000  -9.973  -0.001  -0.000   6.276   0.002
  0.003   0.003   0.004  -0.001  -9.976  -0.004   0.002   6.279
 -0.004  -0.000   6.279  -0.000  -0.004   7.761   0.000   0.003
 -0.001  -0.000  -0.000   6.276   0.002   0.000   7.762  -0.001
 -0.005  -0.000  -0.004   0.002   6.279   0.003  -0.001   7.760
  0.003   0.001   0.002   0.000   0.002  -0.003  -0.000  -0.002
  0.000   0.000   0.000   0.002   0.000  -0.000  -0.002  -0.000
  0.001   0.000  -0.001   0.000  -0.001   0.001  -0.001   0.001
 -0.001  -0.000   0.000   0.002   0.000  -0.000  -0.003  -0.000
 -0.000  -0.000  -0.001   0.000   0.002   0.002  -0.000  -0.002
  0.003   0.001   0.003   0.000   0.002  -0.004  -0.000  -0.003
  0.000   0.000   0.001   0.002   0.000  -0.001  -0.003  -0.000
  0.001   0.001  -0.001   0.001  -0.001   0.001  -0.001   0.002
 -0.001  -0.001   0.000   0.003   0.001  -0.000  -0.004  -0.001
 -0.000  -0.000  -0.002   0.000   0.002   0.002  -0.000  -0.003
 total augmentation occupancy for first ion, spin component:           1
  1.995  -0.049  -0.000   0.000  -0.000  -0.000   0.000  -0.000   0.009   0.000   0.002  -0.002  -0.001  -0.008  -0.000  -0.002
 -0.049   1.287  -0.002   0.000  -0.001  -0.001   0.000  -0.005   0.020   0.012   0.007  -0.006  -0.002  -0.004  -0.009   0.000
 -0.000  -0.002   1.996   0.000  -0.000  -0.033  -0.000   0.001  -0.006   0.002  -0.002   0.001  -0.003   0.004  -0.001   0.001
  0.000   0.000   0.000   1.996   0.000  -0.000  -0.033   0.000   0.001  -0.006   0.001  -0.005  -0.000  -0.000   0.003  -0.001
 -0.000  -0.001  -0.000   0.000   1.996   0.001   0.000  -0.033  -0.006   0.001  -0.001   0.001   0.002   0.003  -0.000   0.001
 -0.000  -0.001  -0.033  -0.000   0.001   0.069   0.000  -0.001  -0.003  -0.005   0.004  -0.010   0.007   0.001   0.003  -0.001
  0.000   0.000  -0.000  -0.033   0.000   0.000   0.068  -0.001  -0.010   0.005  -0.001  -0.004   0.000   0.005  -0.004   0.000
 -0.000  -0.005   0.001   0.000  -0.033  -0.001  -0.001   0.069   0.005  -0.009   0.004  -0.004  -0.008  -0.004   0.005  -0.002
  0.009   0.020  -0.006   0.001  -0.006  -0.003  -0.010   0.005   3.253  -0.028  -0.067   0.040   0.002  -1.352   0.011   0.029
  0.000   0.012   0.002  -0.006   0.001  -0.005   0.005  -0.009  -0.028   3.279   0.001   0.025  -0.002   0.011  -1.360  -0.001
  0.002   0.007  -0.002   0.001  -0.001   0.004  -0.001   0.004  -0.067   0.001   2.476  -0.008  -0.001   0.028  -0.001  -1.113
 -0.002  -0.006   0.001  -0.005   0.001  -0.010  -0.004  -0.004   0.040   0.025  -0.008   3.255  -0.011  -0.023  -0.002   0.005
 -0.001  -0.002  -0.003  -0.000   0.002   0.007   0.000  -0.008   0.002  -0.002  -0.001  -0.011   2.461  -0.000   0.002   0.000
 -0.008  -0.004   0.004  -0.000   0.003   0.001   0.005  -0.004  -1.352   0.011   0.028  -0.023  -0.000   0.574  -0.005  -0.012
 -0.000  -0.009  -0.001   0.003  -0.000   0.003  -0.004   0.005   0.011  -1.360  -0.001  -0.002   0.002  -0.005   0.576   0.001
 -0.002   0.000   0.001  -0.001   0.001  -0.001   0.000  -0.002   0.029  -0.001  -1.113   0.005   0.000  -0.012   0.001   0.507
  0.002   0.004  -0.000   0.004  -0.001   0.005   0.001   0.003  -0.023  -0.002   0.004  -1.351   0.006   0.012  -0.002  -0.003
  0.001   0.001   0.002   0.000  -0.001  -0.003  -0.000   0.003  -0.000   0.002   0.000   0.007  -1.115  -0.000  -0.001   0.000


------------------------ aborting loop because EDIFF is reached ----------------------------------------


    CHARGE:  cpu time      0.2369: real time      0.2376
    FORLOC:  cpu time      0.0253: real time      0.0254
    FORNL :  cpu time      5.5743: real time      5.5943
    STRESS:  cpu time      3.7029: real time      3.7162
    FORCOR:  cpu time      0.0368: real time      0.0369
    FORHAR:  cpu time      0.1306: real time      0.1310
    MIXING:  cpu time      0.3535: real time      0.3547
    OFIELD:  cpu time      0.0000: real time      0.0000

  FORCE on cell =-STRESS in cart. coord.  units (eV):
  Direction    XX          YY          ZZ          XY          YZ          ZX
  --------------------------------------------------------------------------------------
  Alpha Z  3870.89844  3870.89844  3870.89844
  Ewald  -14700.00024-14621.87935-14502.71846   -78.02462    -4.27699     8.77361
  Hartree  2463.86235  2541.56689  2657.89784   -74.96474    -3.96645     7.60959
  E(xc)   -1932.96301 -1932.99943 -1933.06211     0.17496     0.00858     0.00297
  Local    3587.83786  3433.10801  3199.46256   147.98958     8.21133   -16.38756
  n-local  -769.34354  -770.27307  -771.63639     1.31100    -0.02337     0.37276
  augment  1264.92813  1265.12904  1265.14086     0.79025    -0.03001    -0.05432
  Kinetic  6152.05252  6152.42231  6151.79095     0.85361     0.08810    -0.40832
  Fock        0.00000     0.00000     0.00000     0.00000     0.00000     0.00000
  -------------------------------------------------------------------------------------
  Total     -62.72748   -62.02717   -62.22631    -1.86996     0.01120    -0.09126
  in kB    -176.38463  -174.41541  -174.97539    -5.25818     0.03149    -0.25663
  external pressure =     -175.26 kB  Pullay stress =        0.00 kB


 VOLUME and BASIS-vectors are now :
 -----------------------------------------------------------------------------
  energy-cutoff  :      250.00
  volume of cell :      569.78
      direct lattice vectors                 reciprocal lattice vectors
    13.160000000  0.000000000  0.000000000     0.075987842  0.000000000  0.000000000
     0.000000000  6.580000000  0.000000000     0.000000000  0.151975684  0.000000000
     0.000000000  0.000000000  6.580000000     0.000000000  0.000000000  0.151975684

  length of vectors
    13.160000000  6.580000000  6.580000000     0.075987842  0.151975684  0.151975684


 FORCES acting on ions
    electron-ion (+dipol)            ewald-force                    non-local-force                 convergence-correction
 -----------------------------------------------------------------------------------------------
   0.411E+02 0.362E+02 0.194E+02   -.405E+02 -.357E+02 -.194E+02   0.582E-01 -.124E+00 0.150E-01   -.130E-03 0.229E-04 0.122E-03
   0.817E+02 -.346E+02 -.210E+02   -.817E+02 0.342E+02 0.209E+02   0.244E-01 0.690E-01 0.125E+00   0.123E-03 0.305E-04 -.915E-04
   -.122E+03 -.225E+02 -.226E+02   0.122E+03 0.225E+02 0.225E+02   -.298E+00 -.184E-02 0.893E-01   -.255E-03 -.887E-04 0.884E-05
   0.439E+02 0.388E+02 -.209E+02   -.436E+02 -.385E+02 0.209E+02   0.145E+00 0.279E-02 -.310E-02   -.840E-04 -.671E-05 -.134E-03
   0.127E+02 -.388E+02 -.209E+02   -.120E+02 0.385E+02 0.209E+02   -.248E+00 0.361E-01 -.837E-02   -.198E-03 0.238E-04 -.133E-03
   0.518E+02 0.326E+02 -.326E+02   -.514E+02 -.324E+02 0.324E+02   -.308E+00 0.149E-01 -.757E-02   0.490E-04 0.101E-03 -.775E-04
   0.357E+02 0.326E+02 0.325E+02   -.353E+02 -.324E+02 -.324E+02   -.226E+00 -.685E-02 0.106E-01   -.404E-04 0.913E-04 0.766E-04
   -.107E+03 0.225E+02 -.226E+02   0.106E+03 -.225E+02 0.225E+02   0.236E+00 0.318E-01 0.654E-01   -.386E-03 0.939E-04 0.172E-04
   -.642E+02 -.921E+02 -.325E+02   0.647E+02 0.917E+02 0.324E+02   -.326E+00 -.742E-01 -.617E-01   0.165E-03 -.142E-03 0.109E-04
   -.660E+02 -.607E+02 0.106E+01   0.656E+02 0.604E+02 -.109E+01   -.172E-01 -.770E-01 0.245E-01   0.748E-04 0.194E-03 0.116E-03
   0.119E+03 0.370E+02 0.227E+02   -.120E+03 -.368E+02 -.225E+02   0.431E+00 0.670E-01 -.128E+00   0.124E-03 -.417E-04 0.829E-04
   0.130E+03 0.208E+02 -.209E+02   -.131E+03 -.209E+02 0.209E+02   0.438E+00 0.511E-01 0.452E-01   0.139E-03 -.280E-04 -.807E-04
   -.907E+02 0.225E+02 0.226E+02   0.902E+02 -.225E+02 -.225E+02   0.115E+00 0.261E-01 -.618E-01   -.308E-03 0.944E-04 -.225E-04
   -.275E+02 0.479E+02 -.869E+00   0.267E+02 -.475E+02 0.859E+00   0.219E+00 0.442E-01 -.227E-01   0.564E-04 -.987E-04 -.110E-03
   -.584E+02 -.875E+00 -.880E+00   0.585E+02 0.859E+00 0.859E+00   -.855E-01 0.967E-03 -.519E-01   0.178E-04 0.116E-03 -.141E-03
   0.528E+02 -.257E+02 -.257E+02   -.525E+02 0.255E+02 0.255E+02   0.259E+00 0.151E-01 -.175E-01   -.681E-04 -.897E-04 -.929E-04
   -.831E+02 0.861E+00 0.876E+00   0.834E+02 -.859E+00 -.859E+00   -.442E+00 0.467E-02 0.477E-01   -.632E-04 -.128E-03 0.149E-03
   0.756E+02 -.164E+02 -.164E+02   -.758E+02 0.164E+02 0.164E+02   0.303E-01 -.695E-01 0.212E-01   0.787E-04 0.744E-05 -.765E-04
   0.691E+02 -.294E+02 0.177E+02   -.692E+02 0.289E+02 -.177E+02   0.790E-01 -.443E-01 -.101E+00   0.999E-04 -.500E-05 0.811E-04
   -.851E+02 0.861E+00 -.855E+00   0.853E+02 -.859E+00 0.859E+00   -.410E+00 -.112E-01 -.568E-01   -.506E-04 -.131E-03 -.151E-03
   0.489E+02 -.257E+02 0.257E+02   -.486E+02 0.255E+02 -.255E+02   0.435E-01 -.118E-01 0.153E-01   -.152E-04 -.856E-04 0.893E-04
   -.275E+02 0.479E+02 0.872E+00   0.267E+02 -.475E+02 -.859E+00   0.304E+00 0.828E-01 0.203E-01   0.664E-04 -.107E-03 0.103E-03
   -.660E+02 -.607E+02 -.110E+01   0.656E+02 0.604E+02 0.109E+01   -.933E-01 -.113E+00 0.234E-01   -.186E-04 0.142E-03 -.126E-03
   0.887E+02 -.209E+02 0.209E+02   -.884E+02 0.209E+02 -.209E+02   -.271E+00 0.331E-01 -.391E-01   0.565E-04 0.126E-04 0.952E-04
   0.126E+02 -.387E+02 0.209E+02   -.120E+02 0.385E+02 -.209E+02   -.178E+00 -.157E+00 -.272E-01   -.227E-03 -.783E-05 0.126E-03
   -.329E+02 0.922E+02 0.325E+02   0.331E+02 -.917E+02 -.324E+02   0.753E-02 0.137E+00 0.557E-01   0.278E-03 0.163E-03 0.212E-04
   -.328E+02 0.923E+02 -.326E+02   0.331E+02 -.917E+02 0.324E+02   -.135E-01 0.133E+00 -.535E-01   0.248E-03 0.165E-03 -.195E-04
   0.119E+03 0.371E+02 -.226E+02   -.120E+03 -.368E+02 0.225E+02   0.263E+00 0.125E+00 0.384E-01   0.170E-03 -.890E-05 -.729E-04
   0.128E+03 0.209E+02 0.209E+02   -.128E+03 -.209E+02 -.209E+02   0.429E+00 0.720E-02 -.363E-01   0.211E-03 0.378E-06 0.779E-04
   -.642E+02 -.922E+02 0.325E+02   0.647E+02 0.917E+02 -.324E+02   -.380E+00 -.152E+00 0.619E-01   0.199E-03 -.180E-03 0.607E-05
   -.117E+03 -.225E+02 0.226E+02   0.117E+03 0.225E+02 -.225E+02   -.106E+00 0.206E-02 -.228E-01   -.361E-03 -.829E-04 -.576E-05
   -.665E+02 -.114E+01 0.105E+01   0.665E+02 0.109E+01 -.109E+01   0.202E+00 0.162E-01 0.140E-01   0.740E-04 0.133E-03 0.170E-03
 -----------------------------------------------------------------------------------------------
   0.117E+00 -.575E-01 0.268E-01   -.568E-12 -.140E-12 0.455E-12   -.117E+00 0.574E-01 -.268E-01   0.252E-04 0.160E-03 0.175E-04
 
 
 POSITION                                       TOTAL-FORCE (eV/Angst)
 -----------------------------------------------------------------------------------
      8.22500      1.64500      1.64500         0.654282      0.372876      0.069547
      6.58000      0.00000      3.29000         0.004492     -0.374572      0.015935
      9.87000      3.29000      3.29000        -0.573137     -0.018125     -0.042755
      8.22500      1.64500      4.93500         0.465081      0.311848     -0.010187
      8.22500      4.93500      4.93500         0.426481     -0.330211     -0.012728
      3.29000      0.00000      3.29000         0.115054      0.165470     -0.161227
      3.29000      0.00000      0.00000         0.192237      0.176746      0.153533
      9.87000      0.00000      3.29000        -0.355029      0.006354     -0.021463
      0.00000      3.29000      3.29000         0.182564     -0.483990     -0.159099
      1.64500      1.64500      1.64500        -0.434589     -0.313970     -0.008464
      6.58000      3.29000      0.00000         0.013956      0.272014      0.045283
      4.93500      4.93500      4.93500         0.084056     -0.026920     -0.030713
      9.87000      0.00000      0.00000        -0.391796      0.020694      0.041489
      1.64500      4.93500      4.93500        -0.559205      0.492010     -0.032583
     11.51500      1.64500      4.93500         0.094191     -0.014644     -0.072427
      3.29000      3.29000      3.29000         0.469031     -0.231175     -0.232883
     11.51500      4.93500      1.64500        -0.120481      0.006500      0.064217
      4.93500      1.64500      4.93500        -0.129369     -0.112219     -0.018586
      6.58000      0.00000      0.00000        -0.013708     -0.501452     -0.048417
     11.51500      4.93500      4.93500        -0.158267     -0.009902     -0.052768
      3.29000      3.29000      0.00000         0.289721     -0.210607      0.239641
      1.64500      4.93500      1.64500        -0.478861      0.529020      0.032724
      1.64500      1.64500      4.93500        -0.518256     -0.392097      0.014709
      4.93500      1.64500      1.64500        -0.008354     -0.007861      0.033433
      8.22500      4.93500      1.64500         0.442266     -0.411817      0.008452
      0.00000      0.00000      0.00000         0.256648      0.648231      0.197371
      0.00000      0.00000      3.29000         0.275234      0.692315     -0.205488
      6.58000      3.29000      3.29000        -0.055458      0.395388     -0.038918
      4.93500      4.93500      1.64500         0.048620     -0.012731      0.025838
      0.00000      3.29000      0.00000         0.182008     -0.615051      0.201719
      9.87000      3.29000      0.00000        -0.542873      0.003671      0.031445
     11.51500      1.64500      1.64500         0.143461     -0.025794     -0.026628
 -----------------------------------------------------------------------------------
    total drift:                               -0.000006      0.000004     -0.000003


--------------------------------------------------------------------------------------------------------



  FREE ENERGIE OF THE ION-ELECTRON SYSTEM (eV)
  ---------------------------------------------------
  free  energy   TOTEN  =      -377.74116433 eV

  energy  without entropy=     -377.73702224  energy(sigma->0) =     -377.73909329
 


--------------------------------------------------------------------------------------------------------


    POTLOK:  cpu time      0.0135: real time      0.0136


--------------------------------------------------------------------------------------------------------


     LOOP+:  cpu time    923.6967: real time    969.5277
    4ORBIT:  cpu time      0.0000: real time      0.0000

 total amount of memory used by VASP MPI-rank0    61379. kBytes
=======================================================================

   base      :      30000. kBytes
   nonl-proj :       9945. kBytes
   fftplans  :        778. kBytes
   grid      :       1458. kBytes
   one-center:         46. kBytes
   wavefun   :      19152. kBytes
 
  
  
 General timing and accounting informations for this job:
 ========================================================
  
                  Total CPU time used (sec):     1050.560
                            User time (sec):     1029.421
                          System time (sec):       21.139
                         Elapsed time (sec):     1110.541
  
                   Maximum memory used (kb):      110504.
                   Average memory used (kb):          N/A
  
                          Minor page faults:        49202
                          Major page faults:            1
                 Voluntary context switches:          313
