 vasp.6.3.1 04May22 (build Jul 26 2022 04:02:40) complex                        
  
 executed on             LinuxIFC date 2023.11.30  13:34:47
 running on   48 total cores
 distrk:  each k-point on   48 cores,    1 groups
 distr:  one band on NCORE=  12 cores,    4 groups


--------------------------------------------------------------------------------------------------------


 INCAR:
   ISTART = 0
   NWRITE = 2
   PREC = Accurate
   ENCUT = 250
   GGA = PE
   NSW = 0
   ISIF = 2
   ISYM = 2
   NBLOCK = 1
   KBLOCK = 1
   IBRION = -1
   NELM = 80
   EDIFF = 1E-08
   EDIFFG = -0.01
   ALGO = Normal
   LDIAG = .TRUE.
   LREAL = .FALSE.
   ISMEAR = 0
   SIGMA = 0.02
   ICHARG = 2
   LPLANE = .TRUE.
   NPAR = 4
   LSCALU = .FALSE.
   NSIM = 4
   LWAVE = .FALSE.
   LCHARG = .FALSE.
   ICORELEVEL = 1

 POTCAR:    PAW_PBE Nb_sv 25May2007               
 POTCAR:    PAW_PBE Mo_sv 02Feb2006               
 POTCAR:    PAW_PBE Ta_pv 07Sep2000               
 POTCAR:    PAW_PBE W_sv 04Sep2015                
 POTCAR:    PAW_PBE Nb_sv 25May2007               
   SHA256 =  0e8fc07c9fcd1164cf2ade22d0399fd28f85e91cd773dfa6cf24839a48c95e24 Nb_sv/POTCAR          
   COPYR  = (c) Copyright 25May2007 Georg Kresse                                                    
   COPYR  = This file is part of the software VASP. Any use, copying, and all other rights are regul
   COPYR  = If you do not have a valid VASP license, you may not use, copy or distribute this file. 
   VRHFIN =Nb: 4p5s4d                                                                               
   LEXCH  = PE                                                                                      
   EATOM  =  1555.1913 eV,  114.3033 Ry                                                             
                                                                                                    
   TITEL  = PAW_PBE Nb_sv 25May2007                                                                 
   LULTRA =        F    use ultrasoft PP ?                                                          
   IUNSCR =        1    unscreen: 0-lin 1-nonlin 2-no                                               
   RPACOR =    1.800    partial core radius                                                         
   POMASS =   92.910; ZVAL   =   13.000    mass and valenz                                          
   RCORE  =    2.400    outmost cutoff radius                                                       
   RWIGS  =    2.400; RWIGS  =    1.270    wigner-seitz radius (au A)                               
   ENMAX  =  293.235; ENMIN  =  219.927 eV                                                          
   ICORE  =        3    local potential                                                             
   LCOR   =        T    correct aug charges                                                         
   LPAW   =        T    paw PP                                                                      
   EAUG   =  455.659                                                                                
   DEXC   =    0.000                                                                                
   RMAX   =    2.456    core radius for proj-oper                                                   
   RAUG   =    1.300    factor for augmentation sphere                                              
   RDEP   =    2.451    radius for radial grids                                                     
   RDEPT  =    1.956    core radius for aug-charge                                                  
                                                                                                    
   Atomic configuration                                                                             
   11 entries                                                                                       
     n  l   j            E        occ.                                                              
     1  0  0.50    -18805.2457   2.0000                                                             
     2  0  0.50     -2630.2869   2.0000                                                             
     2  1  1.50     -2348.4046   6.0000                                                             
     3  0  0.50      -438.8757   2.0000                                                             
     3  1  1.50      -346.7588   6.0000                                                             
     3  2  2.50      -196.2560  10.0000                                                             
     4  0  0.50       -58.3859   2.0000                                                             
     5  0  0.50        -3.9816   1.0000                                                             
     4  1  1.50       -34.5141   6.0000                                                             
     4  2  2.50        -3.0408   4.0000                                                             
     4  3  2.50        -1.3606   0.0000                                                             
   Description                                                                                      
     l       E           TYP  RCUT    TYP  RCUT                                                     
     0    -58.3859094     23  2.200                                                                 
     0     -3.9816262     23  2.200                                                                 
     1    -34.5140738     23  2.200                                                                 
     1     13.6058260     23  2.200                                                                 
     2     -3.0408010     23  2.200                                                                 
     2     -0.1283038     23  2.200                                                                 
     3     -1.3605826     23  2.400                                                                 
  local pseudopotential read in
  partial core-charges read in
  partial kinetic energy density read in
  atomic valenz-charges read in
  non local Contribution for L=           0  read in
    real space projection operators read in
  non local Contribution for L=           0  read in
    real space projection operators read in
  non local Contribution for L=           1  read in
    real space projection operators read in
  non local Contribution for L=           1  read in
    real space projection operators read in
  non local Contribution for L=           2  read in
    real space projection operators read in
  non local Contribution for L=           2  read in
    real space projection operators read in
    PAW grid and wavefunctions read in
 
   number of l-projection  operators is LMAX  =           6
   number of lm-projection operators is LMMAX =          18
 
 POTCAR:    PAW_PBE Mo_sv 02Feb2006               
   SHA256 =  2731df97e41766cc617548c5a8267718fdef1f509ac6bafa01e745abea2bdfaa Mo_sv/POTCAR          
   COPYR  = (c) Copyright 02Feb2006 Georg Kresse                                                    
   COPYR  = This file is part of the software VASP. Any use, copying, and all other rights are regul
   COPYR  = If you do not have a valid VASP license, you may not use, copy or distribute this file. 
   VRHFIN =Mo: 4p5s4d                                                                               
   LEXCH  = PE                                                                                      
   EATOM  =  1862.2866 eV,  136.8742 Ry                                                             
                                                                                                    
   TITEL  = PAW_PBE Mo_sv 02Feb2006                                                                 
   LULTRA =        F    use ultrasoft PP ?                                                          
   IUNSCR =        1    unscreen: 0-lin 1-nonlin 2-no                                               
   RPACOR =    2.200    partial core radius                                                         
   POMASS =   95.940; ZVAL   =   14.000    mass and valenz                                          
   RCORE  =    2.500    outmost cutoff radius                                                       
   RWIGS  =    2.750; RWIGS  =    1.455    wigner-seitz radius (au A)                               
   ENMAX  =  242.676; ENMIN  =  182.007 eV                                                          
   ICORE  =        3    local potential                                                             
   LCOR   =        T    correct aug charges                                                         
   LPAW   =        T    paw PP                                                                      
   EAUG   =  446.014                                                                                
   DEXC   =    0.000                                                                                
   RMAX   =    2.563    core radius for proj-oper                                                   
   RAUG   =    1.300    factor for augmentation sphere                                              
   RDEP   =    2.641    radius for radial grids                                                     
   RDEPT  =    2.031    core radius for aug-charge                                                  
                                                                                                    
   Atomic configuration                                                                             
   11 entries                                                                                       
     n  l   j            E        occ.                                                              
     1  0  0.50    -19819.0341   2.0000                                                             
     2  0  0.50     -2799.0127   2.0000                                                             
     2  1  1.50     -2502.0276   6.0000                                                             
     3  0  0.50      -476.4449   2.0000                                                             
     3  1  1.50      -379.1496   6.0000                                                             
     3  2  2.50      -220.9367  10.0000                                                             
     4  0  0.50       -64.3378   2.0000                                                             
     5  0  0.50        -4.0862   1.0000                                                             
     4  1  1.50       -38.4773   6.0000                                                             
     4  2  2.50        -3.7535   5.0000                                                             
     4  3  2.50        -1.3606   0.0000                                                             
   Description                                                                                      
     l       E           TYP  RCUT    TYP  RCUT                                                     
     0    -64.3377829     23  2.100                                                                 
     0     -4.0861640     23  2.400                                                                 
     1    -38.4772993     23  2.100                                                                 
     1     13.6058260     23  2.100                                                                 
     2     -3.7534941     23  2.400                                                                 
     2     -5.1140767     23  2.400                                                                 
     3     -4.0817478     23  2.500                                                                 
  local pseudopotential read in
  partial core-charges read in
  partial kinetic energy density read in
  atomic valenz-charges read in
  non local Contribution for L=           0  read in
    real space projection operators read in
  non local Contribution for L=           0  read in
    real space projection operators read in
  non local Contribution for L=           1  read in
    real space projection operators read in
  non local Contribution for L=           1  read in
    real space projection operators read in
  non local Contribution for L=           2  read in
    real space projection operators read in
  non local Contribution for L=           2  read in
    real space projection operators read in
    PAW grid and wavefunctions read in
 
   number of l-projection  operators is LMAX  =           6
   number of lm-projection operators is LMMAX =          18
 
 POTCAR:    PAW_PBE Ta_pv 07Sep2000               
   SHA256 =  00d0a14a36c127416459414afb8617d9754996fffa60a2465888e660b20a452f Ta_pv/POTCAR          
   COPYR  = (c) Copyright 07Sep2000 Georg Kresse                                                    
   COPYR  = This file is part of the software VASP. Any use, copying, and all other rights are regul
   COPYR  = If you do not have a valid VASP license, you may not use, copy or distribute this file. 
   VRHFIN =Ta:  5p6s5d                                                                              
   LEXCH  = PE                                                                                      
   EATOM  =  1047.1984 eV,   76.9669 Ry                                                             
                                                                                                    
   TITEL  = PAW_PBE Ta_pv 07Sep2000                                                                 
   LULTRA =        F    use ultrasoft PP ?                                                          
   IUNSCR =        1    unscreen: 0-lin 1-nonlin 2-no                                               
   RPACOR =    2.330    partial core radius                                                         
   POMASS =  180.948; ZVAL   =   11.000    mass and valenz                                          
   RCORE  =    2.500    outmost cutoff radius                                                       
   RWIGS  =    2.840; RWIGS  =    1.503    wigner-seitz radius (au A)                               
   ENMAX  =  223.667; ENMIN  =  167.750 eV                                                          
   RCLOC  =    2.205    cutoff for local pot                                                        
   LCOR   =        T    correct aug charges                                                         
   LPAW   =        T    paw PP                                                                      
   EAUG   =  377.421                                                                                
   DEXC   =    0.000                                                                                
   RMAX   =    2.551    core radius for proj-oper                                                   
   RAUG   =    1.300    factor for augmentation sphere                                              
   RDEP   =    2.526    radius for radial grids                                                     
   RDEPT  =    2.132    core radius for aug-charge                                                  
                                                                                                    
   Atomic configuration                                                                             
   15 entries                                                                                       
     n  l   j            E        occ.                                                              
     1  0  0.50    -67341.2801   2.0000                                                             
     2  0  0.50    -11566.9369   2.0000                                                             
     2  1  1.50    -10134.1175   6.0000                                                             
     3  0  0.50     -2648.5614   2.0000                                                             
     3  1  1.50     -2222.6006   6.0000                                                             
     3  2  2.50     -1726.3114  10.0000                                                             
     4  0  0.50      -538.6957   2.0000                                                             
     4  1  1.50      -399.0125   6.0000                                                             
     4  2  2.50      -220.3955  10.0000                                                             
     4  3  3.50       -23.0371  14.0000                                                             
     5  0  0.50       -71.2900   2.0000                                                             
     5  1  1.50       -37.8224   6.0000                                                             
     5  2  2.50        -2.6455   4.0000                                                             
     6  0  0.50        -4.9623   1.0000                                                             
     5  3  2.50        -1.3606   0.0000                                                             
   Description                                                                                      
     l       E           TYP  RCUT    TYP  RCUT                                                     
     1    -37.8224449     23  2.500                                                                 
     1      1.3605826     23  2.500                                                                 
     2     -2.6454718     23  2.500                                                                 
     2     -0.6258570     23  2.500                                                                 
     0     -4.9622674     23  2.500                                                                 
     0      4.7531427     23  2.500                                                                 
  local pseudopotential read in
  partial core-charges read in
  partial kinetic energy density read in
  atomic valenz-charges read in
  non local Contribution for L=           1  read in
    real space projection operators read in
  non local Contribution for L=           1  read in
    real space projection operators read in
  non local Contribution for L=           2  read in
    real space projection operators read in
  non local Contribution for L=           2  read in
    real space projection operators read in
  non local Contribution for L=           0  read in
    real space projection operators read in
  non local Contribution for L=           0  read in
    real space projection operators read in
    PAW grid and wavefunctions read in
 
   number of l-projection  operators is LMAX  =           6
   number of lm-projection operators is LMMAX =          18
 
 POTCAR:    PAW_PBE W_sv 04Sep2015                
   SHA256 =  931c2d770f65867ef30f3db3421922900fc0890ebac5c3e12f63b6a2064023d7 W_sv/POTCAR           
   COPYR  = (c) Copyright 04Sep2015 Georg Kresse                                                    
   COPYR  = This file is part of the software VASP. Any use, copying, and all other rights are regul
   COPYR  = If you do not have a valid VASP license, you may not use, copy or distribute this file. 
   VRHFIN =W : 5p6s5d                                                                               
   LEXCH  = PE                                                                                      
   EATOM  =  1865.5791 eV,  137.1162 Ry                                                             
                                                                                                    
   TITEL  = PAW_PBE W_sv 04Sep2015                                                                  
   LULTRA =        F    use ultrasoft PP ?                                                          
   IUNSCR =        1    unscreen: 0-lin 1-nonlin 2-no                                               
   RPACOR =    2.330    partial core radius                                                         
   POMASS =  183.850; ZVAL   =   14.000    mass and valenz                                          
   RCORE  =    2.500    outmost cutoff radius                                                       
   RWIGS  =    2.750; RWIGS  =    1.455    wigner-seitz radius (au A)                               
   ENMAX  =  223.057; ENMIN  =  167.293 eV                                                          
   ICORE  =        3    local potential                                                             
   LCOR   =        T    correct aug charges                                                         
   LPAW   =        T    paw PP                                                                      
   EAUG   =  373.438                                                                                
   DEXC   =    0.000                                                                                
   RMAX   =    2.565    core radius for proj-oper                                                   
   RAUG   =    1.300    factor for augmentation sphere                                              
   RDEP   =    2.539    radius for radial grids                                                     
   RDEPT  =    2.126    core radius for aug-charge                                                  
                                                                                                    
   Atomic configuration                                                                             
   15 entries                                                                                       
     n  l   j            E        occ.                                                              
     1  0  0.50    -69465.5834   2.0000                                                             
     2  0  0.50    -11986.2640   2.0000                                                             
     2  1  1.50    -10479.8613   6.0000                                                             
     3  0  0.50     -2759.0756   2.0000                                                             
     3  1  1.50     -2313.1855   6.0000                                                             
     3  2  2.50     -1801.1183  10.0000                                                             
     4  0  0.50      -567.6789   2.0000                                                             
     4  1  1.50      -421.4692   6.0000                                                             
     4  2  2.50      -236.3471  10.0000                                                             
     4  3  3.50       -31.2665  14.0000                                                             
     5  0  0.50       -77.1084   2.0000                                                             
     6  0  0.50        -5.1438   1.0000                                                             
     5  1  1.50       -41.3856   6.0000                                                             
     5  2  2.50        -3.3185   5.0000                                                             
     5  3  2.50        -1.3606   0.0000                                                             
   Description                                                                                      
     l       E           TYP  RCUT    TYP  RCUT                                                     
     0    -77.1084470     23  2.100                                                                 
     0     -5.1437956     23  2.300                                                                 
     1    -41.3855615     23  2.500                                                                 
     1     -2.7211652     23  2.500                                                                 
     2     -3.3185025     23  2.500                                                                 
     2     -1.5965151     23  2.500                                                                 
     3     -1.3605826     23  2.500                                                                 
  local pseudopotential read in
  partial core-charges read in
  partial kinetic energy density read in
  kinetic energy density of atom read in
  atomic valenz-charges read in
  non local Contribution for L=           0  read in
    real space projection operators read in
  non local Contribution for L=           0  read in
    real space projection operators read in
  non local Contribution for L=           1  read in
    real space projection operators read in
  non local Contribution for L=           1  read in
    real space projection operators read in
  non local Contribution for L=           2  read in
    real space projection operators read in
  non local Contribution for L=           2  read in
    real space projection operators read in
    PAW grid and wavefunctions read in
 
   number of l-projection  operators is LMAX  =           6
   number of lm-projection operators is LMMAX =          18
 
 -----------------------------------------------------------------------------
|                                                                             |
|               ----> ADVICE to this user running VASP <----                  |
|                                                                             |
|     You have a (more or less) 'large supercell' and for larger cells it     |
|     might be more efficient to use real-space projection operators.         |
|     Therefore, try LREAL= Auto in the INCAR file.                           |
|     Mind: For very accurate calculation, you might also keep the            |
|     reciprocal projection scheme (i.e. LREAL=.FALSE.).                      |
|                                                                             |
 -----------------------------------------------------------------------------

  PAW_PBE Nb_sv 25May2007               :
 energy of atom  1       EATOM=-1555.1913
 kinetic energy error for atom=    0.2155 (will be added to EATOM!!)
  PAW_PBE Mo_sv 02Feb2006               :
 energy of atom  2       EATOM=-1862.2866
 kinetic energy error for atom=    0.1102 (will be added to EATOM!!)
  PAW_PBE Ta_pv 07Sep2000               :
 energy of atom  3       EATOM=-1047.1984
 kinetic energy error for atom=    0.0394 (will be added to EATOM!!)
  PAW_PBE W_sv 04Sep2015                :
 energy of atom  4       EATOM=-1865.5791
 kinetic energy error for atom=    0.0589 (will be added to EATOM!!)
 
 
 POSCAR: Nb-Mo-Ta-W alloy
  positions in direct lattice
  No initial velocities read in
 exchange correlation table for  LEXCH =        8
   RHO(1)=    0.500       N(1)  =     2000
   RHO(2)=  100.500       N(2)  =     4000
 


--------------------------------------------------------------------------------------------------------


 ion  position               nearest neighbor table
   1  0.875  0.750  0.750-   2 2.85   3 2.85   4 2.85  15 2.85  20 2.85  22 2.85  25 2.85  31 2.85
                            21 3.29
   2  0.000  0.500  0.000-   1 2.85   6 2.85  16 2.85  17 2.85  21 2.85  23 2.85  27 2.85  32 2.85
                            15 3.29  15 3.29
   3  0.750  0.000  0.000-   1 2.85   6 2.85  14 2.85  16 2.85  23 2.85  26 2.85  28 2.85  29 2.85
                            20 3.29  20 3.29
   4  0.000  0.000  0.000-   1 2.85   6 2.85  16 2.85  17 2.85  21 2.85  23 2.85  27 2.85  32 2.85

   5  0.500  0.500  0.500-   7 2.85   9 2.85  11 2.85  14 2.85  24 2.85  26 2.85  28 2.85  29 2.85
                            18 3.29  19 3.29  19 3.29
   6  0.875  0.750  0.250-   2 2.85   3 2.85   4 2.85  15 2.85  20 2.85  22 2.85  25 2.85  31 2.85
                            16 3.29  17 3.29  16 3.29
   7  0.375  0.250  0.750-   5 2.85   8 2.85  10 2.85  12 2.85  13 2.85  18 2.85  19 2.85  30 2.85

   8  0.250  0.000  0.500-   7 2.85   9 2.85  11 2.85  17 2.85  21 2.85  24 2.85  27 2.85  32 2.85
                            22 3.29  18 3.29  19 3.29  13 3.29  13 3.29  18 3.29
   9  0.375  0.750  0.250-   5 2.85   8 2.85  10 2.85  12 2.85  13 2.85  18 2.85  19 2.85  30 2.85
                            17 3.29  24 3.29  28 3.29  11 3.29  11 3.29  24 3.29
  10  0.250  0.500  0.000-   7 2.85   9 2.85  11 2.85  17 2.85  21 2.85  24 2.85  27 2.85  32 2.85
                            13 3.29  30 3.29  18 3.29  18 3.29  13 3.29
  11  0.375  0.750  0.750-   5 2.85   8 2.85  10 2.85  12 2.85  13 2.85  18 2.85  19 2.85  30 2.85
                            14 3.29  21 3.29   9 3.29   9 3.29
  12  0.500  0.000  0.000-   7 2.85   9 2.85  11 2.85  14 2.85  24 2.85  26 2.85  28 2.85  29 2.85
                            13 3.29  19 3.29  30 3.29  19 3.29  30 3.29
  13  0.250  0.000  0.000-   7 2.85   9 2.85  11 2.85  17 2.85  21 2.85  24 2.85  27 2.85  32 2.85
                            12 3.29  10 3.29   8 3.29   8 3.29  10 3.29
  14  0.625  0.750  0.750-   3 2.85   5 2.85  12 2.85  19 2.85  20 2.85  25 2.85  30 2.85  31 2.85
                            29 3.29  11 3.29  28 3.29  28 3.29  29 3.29
  15  0.000  0.500  0.500-   1 2.85   6 2.85  16 2.85  17 2.85  21 2.85  23 2.85  27 2.85  32 2.85
                            18 3.29   2 3.29  31 3.29  22 3.29   2 3.29  22 3.29
  16  0.875  0.250  0.250-   2 2.85   3 2.85   4 2.85  15 2.85  20 2.85  22 2.85  25 2.85  31 2.85
                             6 3.29  26 3.29  27 3.29  23 3.29  23 3.29   6 3.29
  17  0.125  0.750  0.250-   2 2.85   4 2.85   8 2.85  10 2.85  13 2.85  15 2.85  18 2.85  22 2.85
                             9 3.29  21 3.29   6 3.29  27 3.29  21 3.29  27 3.29
  18  0.250  0.500  0.500-   7 2.85   9 2.85  11 2.85  17 2.85  21 2.85  24 2.85  27 2.85  32 2.85
                            10 3.29   8 3.29  15 3.29   5 3.29  10 3.29   8 3.29
  19  0.500  0.000  0.500-   7 2.85   9 2.85  11 2.85  14 2.85  24 2.85  26 2.85  28 2.85  29 2.85
                             8 3.29  12 3.29   5 3.29  20 3.29  12 3.29   5 3.29
  20  0.750  0.000  0.500-   1 2.85   6 2.85  14 2.85  16 2.85  23 2.85  26 2.85  28 2.85  29 2.85
                            19 3.29  22 3.29   3 3.29  31 3.29   3 3.29  31 3.29
  21  0.125  0.750  0.750-   2 2.85   4 2.85   8 2.85  10 2.85  13 2.85  15 2.85  18 2.85  22 2.85
                            17 3.29   1 3.29  11 3.29  32 3.29  17 3.29  32 3.29
  22  0.000  0.000  0.500-   1 2.85   6 2.85  16 2.85  17 2.85  21 2.85  23 2.85  27 2.85  32 2.85
                            15 3.29  20 3.29   8 3.29  15 3.29
  23  0.875  0.250  0.750-   2 2.85   3 2.85   4 2.85  15 2.85  20 2.85  22 2.85  25 2.85  31 2.85
                            29 3.29  16 3.29  32 3.29  16 3.29
  24  0.375  0.250  0.250-   5 2.85   8 2.85  10 2.85  12 2.85  13 2.85  18 2.85  19 2.85  30 2.85
                            26 3.29  27 3.29   9 3.29   9 3.29
  25  0.750  0.500  0.000-   1 2.85   6 2.85  14 2.85  16 2.85  23 2.85  26 2.85  28 2.85  29 2.85
                            30 3.29  31 3.29  31 3.29
  26  0.625  0.250  0.250-   3 2.85   5 2.85  12 2.85  19 2.85  20 2.85  25 2.85  30 2.85  31 2.85
                            28 3.29  29 3.29  24 3.29  16 3.29  29 3.29  28 3.29
  27  0.125  0.250  0.250-   2 2.85   4 2.85   8 2.85  10 2.85  13 2.85  15 2.85  18 2.85  22 2.85
                            16 3.29  17 3.29  24 3.29  32 3.29  32 3.29  17 3.29
  28  0.625  0.750  0.250-   3 2.85   5 2.85  12 2.85  19 2.85  20 2.85  25 2.85  30 2.85  31 2.85
                            26 3.29  14 3.29   9 3.29  14 3.29  26 3.29
  29  0.625  0.250  0.750-   3 2.85   5 2.85  12 2.85  19 2.85  20 2.85  25 2.85  30 2.85  31 2.85
                            26 3.29  23 3.29  14 3.29  26 3.29  14 3.29
  30  0.500  0.500  0.000-   7 2.85   9 2.85  11 2.85  14 2.85  24 2.85  26 2.85  28 2.85  29 2.85
                            10 3.29  12 3.29  25 3.29  12 3.29
  31  0.750  0.500  0.500-   1 2.85   6 2.85  14 2.85  16 2.85  23 2.85  26 2.85  28 2.85  29 2.85
                            20 3.29  15 3.29  25 3.29  25 3.29  20 3.29
  32  0.125  0.250  0.750-   2 2.85   4 2.85   8 2.85  10 2.85  13 2.85  15 2.85  18 2.85  22 2.85
                            21 3.29  23 3.29  27 3.29  27 3.29  21 3.29
 
  LATTYP: Found a simple tetragonal cell.
 ALAT       =     6.5800000000
 C/A-ratio  =     2.0000000000
  
  Lattice vectors:
  
 A1 = (   0.0000000000,   6.5800000000,   0.0000000000)
 A2 = (   0.0000000000,   0.0000000000,   6.5800000000)
 A3 = (  13.1600000000,   0.0000000000,   0.0000000000)


Analysis of symmetry for initial positions (statically):
=====================================================================
 Subroutine PRICEL returns:
 Original cell was already a primitive cell.
 

 Routine SETGRP: Setting up the symmetry group for a 
 simple tetragonal supercell.


 Subroutine GETGRP returns: Found  1 space group operations
 (whereof  1 operations were pure point group operations)
 out of a pool of 16 trial point group operations.


The static configuration has the point symmetry C_1 .


Analysis of symmetry for dynamics (positions and initial velocities):
=====================================================================
 Subroutine PRICEL returns:
 Original cell was already a primitive cell.
 

 Routine SETGRP: Setting up the symmetry group for a 
 simple tetragonal supercell.


 Subroutine GETGRP returns: Found  1 space group operations
 (whereof  1 operations were pure point group operations)
 out of a pool of 16 trial point group operations.


The dynamic configuration has the point symmetry C_1 .


 Subroutine INISYM returns: Found  1 space group operations
 (whereof  1 operations are pure point group operations),
 and found     1 'primitive' translations


----------------------------------------------------------------------------------------

                                     Primitive cell                                     

  volume of cell :     569.7806

  direct lattice vectors                    reciprocal lattice vectors
    13.160000000  0.000000000  0.000000000     0.075987842  0.000000000  0.000000000
     0.000000000  6.580000000  0.000000000     0.000000000  0.151975684  0.000000000
     0.000000000  0.000000000  6.580000000     0.000000000  0.000000000  0.151975684

  length of vectors
    13.160000000  6.580000000  6.580000000     0.075987842  0.151975684  0.151975684

  position of ions in fractional coordinates (direct lattice)
     0.875000000  0.750000000  0.750000000
     0.000000000  0.500000000  0.000000000
     0.750000000  0.000000000  0.000000000
     0.000000000  0.000000000  0.000000000
     0.500000000  0.500000000  0.500000000
     0.875000000  0.750000000  0.250000000
     0.375000000  0.250000000  0.750000000
     0.250000000  0.000000000  0.500000000
     0.375000000  0.750000000  0.250000000
     0.250000000  0.500000000  0.000000000
     0.375000000  0.750000000  0.750000000
     0.500000000  0.000000000  0.000000000
     0.250000000  0.000000000  0.000000000
     0.625000000  0.750000000  0.750000000
     0.000000000  0.500000000  0.500000000
     0.875000000  0.250000000  0.250000000
     0.125000000  0.750000000  0.250000000
     0.250000000  0.500000000  0.500000000
     0.500000000  0.000000000  0.500000000
     0.750000000  0.000000000  0.500000000
     0.125000000  0.750000000  0.750000000
     0.000000000  0.000000000  0.500000000
     0.875000000  0.250000000  0.750000000
     0.375000000  0.250000000  0.250000000
     0.750000000  0.500000000  0.000000000
     0.625000000  0.250000000  0.250000000
     0.125000000  0.250000000  0.250000000
     0.625000000  0.750000000  0.250000000
     0.625000000  0.250000000  0.750000000
     0.500000000  0.500000000  0.000000000
     0.750000000  0.500000000  0.500000000
     0.125000000  0.250000000  0.750000000

  ion indices of the primitive-cell ions
   primitive index   ion index
                 1           1
                 2           2
                 3           3
                 4           4
                 5           5
                 6           6
                 7           7
                 8           8
                 9           9
                10          10
                11          11
                12          12
                13          13
                14          14
                15          15
                16          16
                17          17
                18          18
                19          19
                20          20
                21          21
                22          22
                23          23
                24          24
                25          25
                26          26
                27          27
                28          28
                29          29
                30          30
                31          31
                32          32

----------------------------------------------------------------------------------------

 
 
 KPOINTS: K-Spacing Value to Generate K-Mesh: 0.03

Automatic generation of k-mesh.
 Grid dimensions read from file:
 generate k-points for:    3    5    5

 Generating k-lattice:

  Cartesian coordinates                     Fractional coordinates (reciprocal lattice)
     0.025329281  0.000000000  0.000000000     0.333333333  0.000000000  0.000000000
     0.000000000  0.030395137  0.000000000     0.000000000  0.200000000  0.000000000
     0.000000000  0.000000000  0.030395137     0.000000000  0.000000000  0.200000000

  Length of vectors
     0.025329281  0.030395137  0.030395137

  Shift w.r.t. Gamma in fractional coordinates (k-lattice)
     0.000000000  0.000000000  0.000000000

 
 Subroutine IBZKPT returns following result:
 ===========================================
 
 Found     38 irreducible k-points:
 
 Following reciprocal coordinates:
            Coordinates               Weight
  0.000000  0.000000  0.000000      1.000000
  0.333333  0.000000  0.000000      2.000000
  0.000000  0.200000  0.000000      2.000000
  0.000000  0.000000  0.200000      2.000000
  0.333333  0.200000  0.000000      2.000000
  0.333333  0.000000  0.200000      2.000000
  0.333333 -0.200000  0.000000      2.000000
  0.333333  0.000000 -0.200000      2.000000
  0.000000  0.400000  0.000000      2.000000
  0.000000  0.000000  0.400000      2.000000
  0.333333  0.400000  0.000000      2.000000
  0.333333  0.000000  0.400000      2.000000
  0.333333 -0.400000  0.000000      2.000000
  0.333333  0.000000 -0.400000      2.000000
  0.000000  0.200000  0.200000      2.000000
  0.000000 -0.200000  0.200000      2.000000
  0.333333  0.200000  0.200000      2.000000
  0.333333 -0.200000  0.200000      2.000000
  0.333333 -0.200000 -0.200000      2.000000
  0.333333  0.200000 -0.200000      2.000000
  0.000000  0.400000  0.200000      2.000000
  0.000000 -0.200000  0.400000      2.000000
  0.000000 -0.400000  0.200000      2.000000
  0.000000  0.200000  0.400000      2.000000
  0.333333  0.400000  0.200000      2.000000
  0.333333 -0.200000  0.400000      2.000000
  0.333333 -0.400000 -0.200000      2.000000
  0.333333  0.200000 -0.400000      2.000000
 -0.333333 -0.400000  0.200000      2.000000
 -0.333333  0.200000  0.400000      2.000000
 -0.333333  0.400000 -0.200000      2.000000
 -0.333333 -0.200000 -0.400000      2.000000
  0.000000  0.400000  0.400000      2.000000
  0.000000 -0.400000  0.400000      2.000000
  0.333333  0.400000  0.400000      2.000000
  0.333333 -0.400000  0.400000      2.000000
  0.333333 -0.400000 -0.400000      2.000000
  0.333333  0.400000 -0.400000      2.000000
 
 Following cartesian coordinates:
            Coordinates               Weight
  0.000000  0.000000  0.000000      1.000000
  0.025329  0.000000  0.000000      2.000000
  0.000000  0.030395  0.000000      2.000000
  0.000000  0.000000  0.030395      2.000000
  0.025329  0.030395  0.000000      2.000000
  0.025329  0.000000  0.030395      2.000000
  0.025329 -0.030395  0.000000      2.000000
  0.025329  0.000000 -0.030395      2.000000
  0.000000  0.060790  0.000000      2.000000
  0.000000  0.000000  0.060790      2.000000
  0.025329  0.060790  0.000000      2.000000
  0.025329  0.000000  0.060790      2.000000
  0.025329 -0.060790  0.000000      2.000000
  0.025329  0.000000 -0.060790      2.000000
  0.000000  0.030395  0.030395      2.000000
  0.000000 -0.030395  0.030395      2.000000
  0.025329  0.030395  0.030395      2.000000
  0.025329 -0.030395  0.030395      2.000000
  0.025329 -0.030395 -0.030395      2.000000
  0.025329  0.030395 -0.030395      2.000000
  0.000000  0.060790  0.030395      2.000000
  0.000000 -0.030395  0.060790      2.000000
  0.000000 -0.060790  0.030395      2.000000
  0.000000  0.030395  0.060790      2.000000
  0.025329  0.060790  0.030395      2.000000
  0.025329 -0.030395  0.060790      2.000000
  0.025329 -0.060790 -0.030395      2.000000
  0.025329  0.030395 -0.060790      2.000000
 -0.025329 -0.060790  0.030395      2.000000
 -0.025329  0.030395  0.060790      2.000000
 -0.025329  0.060790 -0.030395      2.000000
 -0.025329 -0.030395 -0.060790      2.000000
  0.000000  0.060790  0.060790      2.000000
  0.000000 -0.060790  0.060790      2.000000
  0.025329  0.060790  0.060790      2.000000
  0.025329 -0.060790  0.060790      2.000000
  0.025329 -0.060790 -0.060790      2.000000
  0.025329  0.060790 -0.060790      2.000000
 


--------------------------------------------------------------------------------------------------------




 Dimension of arrays:
   k-points           NKPTS =     38   k-points in BZ     NKDIM =     38   number of bands    NBANDS=    252
   number of dos      NEDOS =    301   number of ions     NIONS =     32
   non local maximal  LDIM  =      6   non local SUM 2l+1 LMDIM =     18
   total plane-waves  NPLWV =  90720
   max r-space proj   IRMAX =      1   max aug-charges    IRDMAX=   9287
   dimension x,y,z NGX =    70 NGY =   36 NGZ =   36
   dimension x,y,z NGXF=   140 NGYF=   72 NGZF=   72
   support grid    NGXF=   140 NGYF=   72 NGZF=   72
   ions per type =               7   7   7  11
   NGX,Y,Z   is equivalent  to a cutoff of   8.84,  9.10,  9.10 a.u.
   NGXF,Y,Z  is equivalent  to a cutoff of  17.69, 18.19, 18.19 a.u.

 SYSTEM =  unknown system                          
 POSCAR =  Nb-Mo-Ta-W alloy                        

 Startparameter for this run:
   NWRITE =      2    write-flag & timer
   PREC   = accura    normal or accurate (medium, high low for compatibility)
   ISTART =      0    job   : 0-new  1-cont  2-samecut
   ICHARG =      2    charge: 1-file 2-atom 10-const
   ISPIN  =      1    spin polarized calculation?
   LNONCOLLINEAR =      F non collinear calculations
   LSORBIT =      F    spin-orbit coupling
   INIWAV =      1    electr: 0-lowe 1-rand  2-diag
   LASPH  =      F    aspherical Exc in radial PAW
 Electronic Relaxation 1
   ENCUT  =  250.0 eV  18.37 Ry    4.29 a.u.  16.97  8.48  8.48*2*pi/ulx,y,z
   ENINI  =  250.0     initial cutoff
   ENAUG  =  455.7 eV  augmentation charge cutoff
   NELM   =     80;   NELMIN=  2; NELMDL= -5     # of ELM steps 
   EDIFF  = 0.1E-07   stopping-criterion for ELM
   LREAL  =      F    real-space projection
   NLSPLINE    = F    spline interpolate recip. space projectors
   LCOMPAT=      F    compatible to vasp.4.4
   GGA_COMPAT  = T    GGA compatible to vasp.4.4-vasp.4.6
   LMAXPAW     = -100 max onsite density
   LMAXMIX     =    2 max onsite mixed and CHGCAR
   VOSKOWN=      0    Vosko Wilk Nusair interpolation
   ROPT   =    0.00000   0.00000   0.00000   0.00000
 Ionic relaxation
   EDIFFG = -.1E-01   stopping-criterion for IOM
   NSW    =      0    number of steps for IOM
   NBLOCK =      1;   KBLOCK =      1    inner block; outer block 
   IBRION =     -1    ionic relax: 0-MD 1-quasi-New 2-CG
   NFREE  =      0    steps in history (QN), initial steepest desc. (CG)
   ISIF   =      2    stress and relaxation
   IWAVPR =     10    prediction:  0-non 1-charg 2-wave 3-comb
   ISYM   =      2    0-nonsym 1-usesym 2-fastsym
   LCORR  =      T    Harris-Foulkes like correction to forces

   POTIM  = 0.5000    time-step for ionic-motion
   TEIN   =    0.0    initial temperature
   TEBEG  =    0.0;   TEEND  =   0.0 temperature during run
   SMASS  =  -3.00    Nose mass-parameter (am)
   estimated Nose-frequenzy (Omega)   =  0.10E-29 period in steps = 0.13E+47 mass=  -0.396E-26a.u.
   SCALEE = 1.0000    scale energy and forces
   NPACO  =    256;   APACO  = 10.0  distance and # of slots for P.C.
   PSTRESS=    0.0 pullay stress

  Mass of Ions in am
   POMASS =  92.91 95.94180.95183.85
  Ionic Valenz
   ZVAL   =  13.00 14.00 11.00 14.00
  Atomic Wigner-Seitz radii
   RWIGS  =  -1.00 -1.00 -1.00 -1.00
  virtual crystal weights 
   VCA    =   1.00  1.00  1.00  1.00
   NELECT =     420.0000    total number of electrons
   NUPDOWN=      -1.0000    fix difference up-down

 DOS related values:
   EMIN   =  10.00;   EMAX   =-10.00  energy-range for DOS
   EFERMI =   0.00
   ISMEAR =     0;   SIGMA  =   0.02  broadening in eV -4-tet -1-fermi 0-gaus

 Electronic relaxation 2 (details)
   IALGO  =     38    algorithm
   LDIAG  =      T    sub-space diagonalisation (order eigenvalues)
   LSUBROT=      F    optimize rotation matrix (better conditioning)
   TURBO    =      0    0=normal 1=particle mesh
   IRESTART =      0    0=no restart 2=restart with 2 vectors
   NREBOOT  =      0    no. of reboots
   NMIN     =      0    reboot dimension
   EREF     =   0.00    reference energy to select bands
   IMIX   =      4    mixing-type and parameters
     AMIX     =   0.40;   BMIX     =  1.00
     AMIX_MAG =   1.60;   BMIX_MAG =  1.00
     AMIN     =   0.10
     WC   =   100.;   INIMIX=   1;  MIXPRE=   1;  MAXMIX= -45

 Intra band minimization:
   WEIMIN = 0.0000     energy-eigenvalue tresh-hold
   EBREAK =  0.99E-11  absolut break condition
   DEPER  =   0.30     relativ break condition  

   TIME   =   0.40     timestep for ELM

  volume/ion in A,a.u.               =      17.81       120.16
  Fermi-wavevector in a.u.,A,eV,Ry     =   1.478843  2.794608 29.755619  2.186976
  Thomas-Fermi vector in A             =   2.593074
 
 Write flags
   LWAVE        =      F    write WAVECAR
   LDOWNSAMPLE  =      F    k-point downsampling of WAVECAR
   LCHARG       =      F    write CHGCAR
   LVTOT        =      F    write LOCPOT, total local potential
   LVHAR        =      F    write LOCPOT, Hartree potential only
   LELF         =      F    write electronic localiz. function (ELF)
   LORBIT       =      0    0 simple, 1 ext, 2 COOP (PROOUT), +10 PAW based schemes


 Dipole corrections
   LMONO  =      F    monopole corrections only (constant potential shift)
   LDIPOL =      F    correct potential (dipole corrections)
   IDIPOL =      0    1-x, 2-y, 3-z, 4-all directions 
   EPSILON=  1.0000000 bulk dielectric constant

 Core level calculations are selected ICORELEVEL =  1
 Exchange correlation treatment:
   GGA     =    PE    GGA type
   LEXCH   =     8    internal setting for exchange type
   LIBXC   =     F    Libxc                    
   VOSKOWN =     0    Vosko Wilk Nusair interpolation
   LHFCALC =     F    Hartree Fock is set to
   LHFONE  =     F    Hartree Fock one center treatment
   AEXX    =    0.0000 exact exchange contribution

 Linear response parameters
   LEPSILON=     F    determine dielectric tensor
   LRPA    =     F    only Hartree local field effects (RPA)
   LNABLA  =     F    use nabla operator in PAW spheres
   LVEL    =     F    velocity operator in full k-point grid
   CSHIFT  =0.1000    complex shift for real part using Kramers Kronig
   OMEGAMAX=  -1.0    maximum frequency
   DEG_THRESHOLD= 0.2000000E-02 threshold for treating states as degnerate
   RTIME   =   -0.100 relaxation time in fs
  (WPLASMAI=    0.000 imaginary part of plasma frequency in eV, 0.658/RTIME)
   DFIELD  = 0.0000000 0.0000000 0.0000000 field for delta impulse in time
 
  Optional k-point grid parameters
   LKPOINTS_OPT  =     F    use optional k-point grid
   KPOINTS_OPT_MODE=     1    mode for optional k-point grid
 
 Orbital magnetization related:
   ORBITALMAG=     F  switch on orbital magnetization
   LCHIMAG   =     F  perturbation theory with respect to B field
   DQ        =  0.001000  dq finite difference perturbation B field
   LLRAUG    =     F  two centre corrections for induced B field



--------------------------------------------------------------------------------------------------------


 Static calculation
 charge density and potential will be updated during run
 non-spin polarized calculation
 Variant of blocked Davidson
 Davidson routine will perform the subspace rotation
 perform sub-space diagonalisation
    after iterative eigenvector-optimisation
 modified Broyden-mixing scheme, WC =      100.0
 initial mixing is a Kerker type mixing with AMIX =  0.4000 and BMIX =      1.0000
 Hartree-type preconditioning will be used
 using additional bands           42
 reciprocal scheme for non local part
 use partial core corrections
 calculate Harris-corrections to forces 
   (improved forces if not selfconsistent)
 use gradient corrections 
 use of overlap-Matrix (Vanderbilt PP)
 Gauss-broadening in eV      SIGMA  =   0.02


--------------------------------------------------------------------------------------------------------


  energy-cutoff  :      250.00
  volume of cell :      569.78
      direct lattice vectors                 reciprocal lattice vectors
    13.160000000  0.000000000  0.000000000     0.075987842  0.000000000  0.000000000
     0.000000000  6.580000000  0.000000000     0.000000000  0.151975684  0.000000000
     0.000000000  0.000000000  6.580000000     0.000000000  0.000000000  0.151975684

  length of vectors
    13.160000000  6.580000000  6.580000000     0.075987842  0.151975684  0.151975684


 
 k-points in units of 2pi/SCALE and weight: K-Spacing Value to Generate K-Mesh: 0.03
   0.00000000  0.00000000  0.00000000       0.013
   0.02532928  0.00000000  0.00000000       0.027
   0.00000000  0.03039514  0.00000000       0.027
   0.00000000  0.00000000  0.03039514       0.027
   0.02532928  0.03039514  0.00000000       0.027
   0.02532928  0.00000000  0.03039514       0.027
   0.02532928 -0.03039514  0.00000000       0.027
   0.02532928  0.00000000 -0.03039514       0.027
   0.00000000  0.06079027  0.00000000       0.027
   0.00000000  0.00000000  0.06079027       0.027
   0.02532928  0.06079027  0.00000000       0.027
   0.02532928  0.00000000  0.06079027       0.027
   0.02532928 -0.06079027  0.00000000       0.027
   0.02532928  0.00000000 -0.06079027       0.027
   0.00000000  0.03039514  0.03039514       0.027
   0.00000000 -0.03039514  0.03039514       0.027
   0.02532928  0.03039514  0.03039514       0.027
   0.02532928 -0.03039514  0.03039514       0.027
   0.02532928 -0.03039514 -0.03039514       0.027
   0.02532928  0.03039514 -0.03039514       0.027
   0.00000000  0.06079027  0.03039514       0.027
   0.00000000 -0.03039514  0.06079027       0.027
   0.00000000 -0.06079027  0.03039514       0.027
   0.00000000  0.03039514  0.06079027       0.027
   0.02532928  0.06079027  0.03039514       0.027
   0.02532928 -0.03039514  0.06079027       0.027
   0.02532928 -0.06079027 -0.03039514       0.027
   0.02532928  0.03039514 -0.06079027       0.027
  -0.02532928 -0.06079027  0.03039514       0.027
  -0.02532928  0.03039514  0.06079027       0.027
  -0.02532928  0.06079027 -0.03039514       0.027
  -0.02532928 -0.03039514 -0.06079027       0.027
   0.00000000  0.06079027  0.06079027       0.027
   0.00000000 -0.06079027  0.06079027       0.027
   0.02532928  0.06079027  0.06079027       0.027
   0.02532928 -0.06079027  0.06079027       0.027
   0.02532928 -0.06079027 -0.06079027       0.027
   0.02532928  0.06079027 -0.06079027       0.027
 
 k-points in reciprocal lattice and weights: K-Spacing Value to Generate K-Mesh: 0.03
   0.00000000  0.00000000  0.00000000       0.013
   0.33333333  0.00000000  0.00000000       0.027
   0.00000000  0.20000000  0.00000000       0.027
   0.00000000  0.00000000  0.20000000       0.027
   0.33333333  0.20000000  0.00000000       0.027
   0.33333333  0.00000000  0.20000000       0.027
   0.33333333 -0.20000000  0.00000000       0.027
   0.33333333  0.00000000 -0.20000000       0.027
   0.00000000  0.40000000  0.00000000       0.027
   0.00000000  0.00000000  0.40000000       0.027
   0.33333333  0.40000000  0.00000000       0.027
   0.33333333  0.00000000  0.40000000       0.027
   0.33333333 -0.40000000  0.00000000       0.027
   0.33333333  0.00000000 -0.40000000       0.027
   0.00000000  0.20000000  0.20000000       0.027
   0.00000000 -0.20000000  0.20000000       0.027
   0.33333333  0.20000000  0.20000000       0.027
   0.33333333 -0.20000000  0.20000000       0.027
   0.33333333 -0.20000000 -0.20000000       0.027
   0.33333333  0.20000000 -0.20000000       0.027
   0.00000000  0.40000000  0.20000000       0.027
   0.00000000 -0.20000000  0.40000000       0.027
   0.00000000 -0.40000000  0.20000000       0.027
   0.00000000  0.20000000  0.40000000       0.027
   0.33333333  0.40000000  0.20000000       0.027
   0.33333333 -0.20000000  0.40000000       0.027
   0.33333333 -0.40000000 -0.20000000       0.027
   0.33333333  0.20000000 -0.40000000       0.027
  -0.33333333 -0.40000000  0.20000000       0.027
  -0.33333333  0.20000000  0.40000000       0.027
  -0.33333333  0.40000000 -0.20000000       0.027
  -0.33333333 -0.20000000 -0.40000000       0.027
   0.00000000  0.40000000  0.40000000       0.027
   0.00000000 -0.40000000  0.40000000       0.027
   0.33333333  0.40000000  0.40000000       0.027
   0.33333333 -0.40000000  0.40000000       0.027
   0.33333333 -0.40000000 -0.40000000       0.027
   0.33333333  0.40000000 -0.40000000       0.027
 
 position of ions in fractional coordinates (direct lattice) 
   0.87500000  0.75000000  0.75000000
   0.00000000  0.50000000  0.00000000
   0.75000000  0.00000000  0.00000000
   0.00000000  0.00000000  0.00000000
   0.50000000  0.50000000  0.50000000
   0.87500000  0.75000000  0.25000000
   0.37500000  0.25000000  0.75000000
   0.25000000  0.00000000  0.50000000
   0.37500000  0.75000000  0.25000000
   0.25000000  0.50000000  0.00000000
   0.37500000  0.75000000  0.75000000
   0.50000000  0.00000000  0.00000000
   0.25000000  0.00000000  0.00000000
   0.62500000  0.75000000  0.75000000
   0.00000000  0.50000000  0.50000000
   0.87500000  0.25000000  0.25000000
   0.12500000  0.75000000  0.25000000
   0.25000000  0.50000000  0.50000000
   0.50000000  0.00000000  0.50000000
   0.75000000  0.00000000  0.50000000
   0.12500000  0.75000000  0.75000000
   0.00000000  0.00000000  0.50000000
   0.87500000  0.25000000  0.75000000
   0.37500000  0.25000000  0.25000000
   0.75000000  0.50000000  0.00000000
   0.62500000  0.25000000  0.25000000
   0.12500000  0.25000000  0.25000000
   0.62500000  0.75000000  0.25000000
   0.62500000  0.25000000  0.75000000
   0.50000000  0.50000000  0.00000000
   0.75000000  0.50000000  0.50000000
   0.12500000  0.25000000  0.75000000
 
 position of ions in cartesian coordinates  (Angst):
  11.51500000  4.93500000  4.93500000
   0.00000000  3.29000000  0.00000000
   9.87000000  0.00000000  0.00000000
   0.00000000  0.00000000  0.00000000
   6.58000000  3.29000000  3.29000000
  11.51500000  4.93500000  1.64500000
   4.93500000  1.64500000  4.93500000
   3.29000000  0.00000000  3.29000000
   4.93500000  4.93500000  1.64500000
   3.29000000  3.29000000  0.00000000
   4.93500000  4.93500000  4.93500000
   6.58000000  0.00000000  0.00000000
   3.29000000  0.00000000  0.00000000
   8.22500000  4.93500000  4.93500000
   0.00000000  3.29000000  3.29000000
  11.51500000  1.64500000  1.64500000
   1.64500000  4.93500000  1.64500000
   3.29000000  3.29000000  3.29000000
   6.58000000  0.00000000  3.29000000
   9.87000000  0.00000000  3.29000000
   1.64500000  4.93500000  4.93500000
   0.00000000  0.00000000  3.29000000
  11.51500000  1.64500000  4.93500000
   4.93500000  1.64500000  1.64500000
   9.87000000  3.29000000  0.00000000
   8.22500000  1.64500000  1.64500000
   1.64500000  1.64500000  1.64500000
   8.22500000  4.93500000  1.64500000
   8.22500000  1.64500000  4.93500000
   6.58000000  3.29000000  0.00000000
   9.87000000  3.29000000  3.29000000
   1.64500000  1.64500000  4.93500000
 


--------------------------------------------------------------------------------------------------------


 k-point   1 :   0.0000 0.0000 0.0000  plane waves:    5077
 k-point   2 :   0.3333 0.0000 0.0000  plane waves:    5118
 k-point   3 :   0.0000 0.2000 0.0000  plane waves:    5099
 k-point   4 :   0.0000 0.0000 0.2000  plane waves:    5099
 k-point   5 :   0.3333 0.2000 0.0000  plane waves:    5140
 k-point   6 :   0.3333 0.0000 0.2000  plane waves:    5140
 k-point   7 :   0.3333-0.2000 0.0000  plane waves:    5140
 k-point   8 :   0.3333 0.0000-0.2000  plane waves:    5140
 k-point   9 :   0.0000 0.4000 0.0000  plane waves:    5119
 k-point  10 :   0.0000 0.0000 0.4000  plane waves:    5119
 k-point  11 :   0.3333 0.4000 0.0000  plane waves:    5127
 k-point  12 :   0.3333 0.0000 0.4000  plane waves:    5127
 k-point  13 :   0.3333-0.4000 0.0000  plane waves:    5127
 k-point  14 :   0.3333 0.0000-0.4000  plane waves:    5127
 k-point  15 :   0.0000 0.2000 0.2000  plane waves:    5124
 k-point  16 :   0.0000-0.2000 0.2000  plane waves:    5124
 k-point  17 :   0.3333 0.2000 0.2000  plane waves:    5117
 k-point  18 :   0.3333-0.2000 0.2000  plane waves:    5117
 k-point  19 :   0.3333-0.2000-0.2000  plane waves:    5117
 k-point  20 :   0.3333 0.2000-0.2000  plane waves:    5117
 k-point  21 :   0.0000 0.4000 0.2000  plane waves:    5118
 k-point  22 :   0.0000-0.2000 0.4000  plane waves:    5118
 k-point  23 :   0.0000-0.4000 0.2000  plane waves:    5118
 k-point  24 :   0.0000 0.2000 0.4000  plane waves:    5118
 k-point  25 :   0.3333 0.4000 0.2000  plane waves:    5105
 k-point  26 :   0.3333-0.2000 0.4000  plane waves:    5105
 k-point  27 :   0.3333-0.4000-0.2000  plane waves:    5105
 k-point  28 :   0.3333 0.2000-0.4000  plane waves:    5105
 k-point  29 :  -0.3333-0.4000 0.2000  plane waves:    5105
 k-point  30 :  -0.3333 0.2000 0.4000  plane waves:    5105
 k-point  31 :  -0.3333 0.4000-0.2000  plane waves:    5105
 k-point  32 :  -0.3333-0.2000-0.4000  plane waves:    5105
 k-point  33 :   0.0000 0.4000 0.4000  plane waves:    5098
 k-point  34 :   0.0000-0.4000 0.4000  plane waves:    5098
 k-point  35 :   0.3333 0.4000 0.4000  plane waves:    5088
 k-point  36 :   0.3333-0.4000 0.4000  plane waves:    5088
 k-point  37 :   0.3333-0.4000-0.4000  plane waves:    5088
 k-point  38 :   0.3333 0.4000-0.4000  plane waves:    5088

 maximum and minimum number of plane-waves per node :       464      388

 maximum number of plane-waves:      5140
 maximum index in each direction: 
   IXMAX=   17   IYMAX=    8   IZMAX=    8
   IXMIN=  -17   IYMIN=   -8   IZMIN=   -8


 parallel 3D FFT for wavefunctions:
    minimum data exchange during FFTs selected (reduces bandwidth)
 parallel 3D FFT for charge:
    minimum data exchange during FFTs selected (reduces bandwidth)


 total amount of memory used by VASP MPI-rank0    61379. kBytes
=======================================================================

   base      :      30000. kBytes
   nonl-proj :       9945. kBytes
   fftplans  :        778. kBytes
   grid      :       1458. kBytes
   one-center:         46. kBytes
   wavefun   :      19152. kBytes
 
     INWAV:  cpu time      0.0000: real time      0.0002
 Broyden mixing: mesh for mixing (old mesh)
   NGX = 33   NGY = 17   NGZ = 17
  (NGX  =140   NGY  = 72   NGZ  = 72)
  gives a total of   9537 points

 initial charge density was supplied:
 charge density of overlapping atoms calculated
 number of electron     420.0000000 magnetization 
 keeping initial charge density in first step


--------------------------------------------------------------------------------------------------------


 Maximum index for augmentation-charges          517 (set IRDMAX)


--------------------------------------------------------------------------------------------------------


 First call to EWALD:  gamma=   0.214
 Maximum number of real-space cells 2x 3x 3
 Maximum number of reciprocal cells 4x 2x 2

    FEWALD:  cpu time      0.0014: real time      0.0014


--------------------------------------- Iteration      1(   1)  ---------------------------------------


    POTLOK:  cpu time      0.0160: real time      0.0920
    SETDIJ:  cpu time      0.0027: real time      0.0029
     EDDAV:  cpu time      6.3199: real time      6.3467
       DOS:  cpu time      0.0057: real time      0.0057
    --------------------------------------------
      LOOP:  cpu time      6.3443: real time      6.4474

 eigenvalue-minimisations  : 19488
 total energy-change (2. order) : 0.4132651E+04  (-0.1636554E+05)
 number of electron     420.0000000 magnetization 
 augmentation part      420.0000000 magnetization 

 Free energy of the ion-electron system (eV)
  ---------------------------------------------------
  alpha Z        PSCENC =      3733.46460971
  Ewald energy   TEWEN  =    -43958.87295902
  -Hartree energ DENC   =     -8355.24299542
  -exchange      EXHF   =         0.00000000
  -V(xc)+E(xc)   XCENC  =      1657.30176546
  PAW double counting   =     40966.05387861   -40340.04557930
  entropy T*S    EENTRO =        -0.00204846
  eigenvalues    EBANDS =     -1340.90604573
  atomic energy  EATOM  =     51770.89997426
  Solvation  Ediel_sol  =         0.00000000
  ---------------------------------------------------
  free energy    TOTEN  =      4132.65060012 eV

  energy without entropy =     4132.65264858  energy(sigma->0) =     4132.65162435


--------------------------------------------------------------------------------------------------------




--------------------------------------- Iteration      1(   2)  ---------------------------------------


     EDDAV:  cpu time      6.3198: real time      6.3460
       DOS:  cpu time      0.0051: real time      0.0051
    --------------------------------------------
      LOOP:  cpu time      6.3249: real time      6.3512

 eigenvalue-minimisations  : 19304
 total energy-change (2. order) :-0.4135795E+04  (-0.4015376E+04)
 number of electron     420.0000000 magnetization 
 augmentation part      420.0000000 magnetization 

 Free energy of the ion-electron system (eV)
  ---------------------------------------------------
  alpha Z        PSCENC =      3733.46460971
  Ewald energy   TEWEN  =    -43958.87295902
  -Hartree energ DENC   =     -8355.24299542
  -exchange      EXHF   =         0.00000000
  -V(xc)+E(xc)   XCENC  =      1657.30176546
  PAW double counting   =     40966.05387861   -40340.04557930
  entropy T*S    EENTRO =        -0.00284386
  eigenvalues    EBANDS =     -5476.70011581
  atomic energy  EATOM  =     51770.89997426
  Solvation  Ediel_sol  =         0.00000000
  ---------------------------------------------------
  free energy    TOTEN  =        -3.14426536 eV

  energy without entropy =       -3.14142150  energy(sigma->0) =       -3.14284343


--------------------------------------------------------------------------------------------------------




--------------------------------------- Iteration      1(   3)  ---------------------------------------


     EDDAV:  cpu time      8.0756: real time      8.1065
       DOS:  cpu time      0.0055: real time      0.0055
    --------------------------------------------
      LOOP:  cpu time      8.0811: real time      8.1121

 eigenvalue-minimisations  : 28352
 total energy-change (2. order) :-0.3643040E+03  (-0.3418126E+03)
 number of electron     420.0000000 magnetization 
 augmentation part      420.0000000 magnetization 

 Free energy of the ion-electron system (eV)
  ---------------------------------------------------
  alpha Z        PSCENC =      3733.46460971
  Ewald energy   TEWEN  =    -43958.87295902
  -Hartree energ DENC   =     -8355.24299542
  -exchange      EXHF   =         0.00000000
  -V(xc)+E(xc)   XCENC  =      1657.30176546
  PAW double counting   =     40966.05387861   -40340.04557930
  entropy T*S    EENTRO =        -0.00516396
  eigenvalues    EBANDS =     -5841.00184170
  atomic energy  EATOM  =     51770.89997426
  Solvation  Ediel_sol  =         0.00000000
  ---------------------------------------------------
  free energy    TOTEN  =      -367.44831134 eV

  energy without entropy =     -367.44314738  energy(sigma->0) =     -367.44572936


--------------------------------------------------------------------------------------------------------




--------------------------------------- Iteration      1(   4)  ---------------------------------------


     EDDAV:  cpu time      9.4994: real time      9.5378
       DOS:  cpu time      0.0056: real time      0.0056
    --------------------------------------------
      LOOP:  cpu time      9.5050: real time      9.5434

 eigenvalue-minimisations  : 28728
 total energy-change (2. order) :-0.2524674E+02  (-0.2443011E+02)
 number of electron     420.0000000 magnetization 
 augmentation part      420.0000000 magnetization 

 Free energy of the ion-electron system (eV)
  ---------------------------------------------------
  alpha Z        PSCENC =      3733.46460971
  Ewald energy   TEWEN  =    -43958.87295902
  -Hartree energ DENC   =     -8355.24299542
  -exchange      EXHF   =         0.00000000
  -V(xc)+E(xc)   XCENC  =      1657.30176546
  PAW double counting   =     40966.05387861   -40340.04557930
  entropy T*S    EENTRO =        -0.00551859
  eigenvalues    EBANDS =     -5866.24822931
  atomic energy  EATOM  =     51770.89997426
  Solvation  Ediel_sol  =         0.00000000
  ---------------------------------------------------
  free energy    TOTEN  =      -392.69505359 eV

  energy without entropy =     -392.68953500  energy(sigma->0) =     -392.69229430


--------------------------------------------------------------------------------------------------------




--------------------------------------- Iteration      1(   5)  ---------------------------------------


     EDDAV:  cpu time      9.1592: real time      9.2425
       DOS:  cpu time      0.0058: real time      0.0058
    CHARGE:  cpu time      0.1805: real time      0.1811
    MIXING:  cpu time      0.0004: real time      0.0004
    --------------------------------------------
      LOOP:  cpu time      9.3458: real time      9.4298

 eigenvalue-minimisations  : 30784
 total energy-change (2. order) :-0.1541518E+01  (-0.1526928E+01)
 number of electron     419.9999781 magnetization 
 augmentation part       91.8826537 magnetization 

 Broyden mixing:
  rms(total) = 0.77793E+01    rms(broyden)= 0.77779E+01
  rms(prec ) = 0.80214E+01
  weight for this iteration     100.00

 Free energy of the ion-electron system (eV)
  ---------------------------------------------------
  alpha Z        PSCENC =      3733.46460971
  Ewald energy   TEWEN  =    -43958.87295902
  -Hartree energ DENC   =     -8355.24299542
  -exchange      EXHF   =         0.00000000
  -V(xc)+E(xc)   XCENC  =      1657.30176546
  PAW double counting   =     40966.05387861   -40340.04557930
  entropy T*S    EENTRO =        -0.00593942
  eigenvalues    EBANDS =     -5867.78932654
  atomic energy  EATOM  =     51770.89997426
  Solvation  Ediel_sol  =         0.00000000
  ---------------------------------------------------
  free energy    TOTEN  =      -394.23657165 eV

  energy without entropy =     -394.23063223  energy(sigma->0) =     -394.23360194


--------------------------------------------------------------------------------------------------------




--------------------------------------- Iteration      1(   6)  ---------------------------------------


    POTLOK:  cpu time      0.0074: real time      0.0075
    SETDIJ:  cpu time      0.0022: real time      0.0022
     EDDAV:  cpu time      7.1838: real time      7.2103
       DOS:  cpu time      0.0055: real time      0.0055
    CHARGE:  cpu time      0.1810: real time      0.1817
    MIXING:  cpu time      0.0004: real time      0.0004
    --------------------------------------------
      LOOP:  cpu time      7.3803: real time      7.4075

 eigenvalue-minimisations  : 23616
 total energy-change (2. order) : 0.1304143E+02  (-0.5041877E+01)
 number of electron     419.9999770 magnetization 
 augmentation part       95.3866465 magnetization 

 Broyden mixing:
  rms(total) = 0.29617E+01    rms(broyden)= 0.29610E+01
  rms(prec ) = 0.39300E+01
  weight for this iteration     100.00

 eigenvalues of (default mixing * dielectric matrix)
  average eigenvalue GAMMA=   1.4600
  1.4600

 Free energy of the ion-electron system (eV)
  ---------------------------------------------------
  alpha Z        PSCENC =      3733.46460971
  Ewald energy   TEWEN  =    -43958.87295902
  -Hartree energ DENC   =     -7885.66159648
  -exchange      EXHF   =         0.00000000
  -V(xc)+E(xc)   XCENC  =      1634.69259306
  PAW double counting   =     48690.75536565   -48126.03173657
  entropy T*S    EENTRO =        -0.00458655
  eigenvalues    EBANDS =     -6240.43680510
  atomic energy  EATOM  =     51770.89997426
  Solvation  Ediel_sol  =         0.00000000
  ---------------------------------------------------
  free energy    TOTEN  =      -381.19514105 eV

  energy without entropy =     -381.19055450  energy(sigma->0) =     -381.19284778


--------------------------------------------------------------------------------------------------------




--------------------------------------- Iteration      1(   7)  ---------------------------------------


    POTLOK:  cpu time      0.0074: real time      0.0075
    SETDIJ:  cpu time      0.0021: real time      0.0022
     EDDAV:  cpu time      7.9135: real time      7.9432
       DOS:  cpu time      0.0058: real time      0.0059
    CHARGE:  cpu time      0.1747: real time      0.1753
    MIXING:  cpu time      0.0003: real time      0.0003
    --------------------------------------------
      LOOP:  cpu time      8.1039: real time      8.1343

 eigenvalue-minimisations  : 27264
 total energy-change (2. order) :-0.2057957E+02  (-0.8909339E+01)
 number of electron     419.9999773 magnetization 
 augmentation part       95.0192373 magnetization 

 Broyden mixing:
  rms(total) = 0.26117E+01    rms(broyden)= 0.26094E+01
  rms(prec ) = 0.75273E+01
  weight for this iteration     100.00

 eigenvalues of (default mixing * dielectric matrix)
  average eigenvalue GAMMA=   0.9774
  1.5872  0.3675

 Free energy of the ion-electron system (eV)
  ---------------------------------------------------
  alpha Z        PSCENC =      3733.46460971
  Ewald energy   TEWEN  =    -43958.87295902
  -Hartree energ DENC   =     -7783.74141134
  -exchange      EXHF   =         0.00000000
  -V(xc)+E(xc)   XCENC  =      1627.76205143
  PAW double counting   =     52927.07286364   -52381.60300025
  entropy T*S    EENTRO =        -0.00488656
  eigenvalues    EBANDS =     -6336.75195524
  atomic energy  EATOM  =     51770.89997426
  Solvation  Ediel_sol  =         0.00000000
  ---------------------------------------------------
  free energy    TOTEN  =      -401.77471337 eV

  energy without entropy =     -401.76982681  energy(sigma->0) =     -401.77227009


--------------------------------------------------------------------------------------------------------




--------------------------------------- Iteration      1(   8)  ---------------------------------------


    POTLOK:  cpu time      0.0061: real time      0.0063
    SETDIJ:  cpu time      0.0020: real time      0.0020
     EDDAV:  cpu time      7.9504: real time      7.9806
       DOS:  cpu time      0.0054: real time      0.0054
    CHARGE:  cpu time      0.1747: real time      0.1753
    MIXING:  cpu time      0.0003: real time      0.0003
    --------------------------------------------
      LOOP:  cpu time      8.1390: real time      8.1700

 eigenvalue-minimisations  : 27192
 total energy-change (2. order) : 0.2787995E+02  (-0.6703291E+01)
 number of electron     419.9999772 magnetization 
 augmentation part       95.9780295 magnetization 

 Broyden mixing:
  rms(total) = 0.84163E+00    rms(broyden)= 0.83781E+00
  rms(prec ) = 0.12340E+01
  weight for this iteration     100.00

 eigenvalues of (default mixing * dielectric matrix)
  average eigenvalue GAMMA=   0.8897
  1.6867  0.6912  0.2911

 Free energy of the ion-electron system (eV)
  ---------------------------------------------------
  alpha Z        PSCENC =      3733.46460971
  Ewald energy   TEWEN  =    -43958.87295902
  -Hartree energ DENC   =     -7679.56537895
  -exchange      EXHF   =         0.00000000
  -V(xc)+E(xc)   XCENC  =      1623.51316067
  PAW double counting   =     55170.54912300   -54638.93929451
  entropy T*S    EENTRO =        -0.00285361
  eigenvalues    EBANDS =     -6394.94114255
  atomic energy  EATOM  =     51770.89997426
  Solvation  Ediel_sol  =         0.00000000
  ---------------------------------------------------
  free energy    TOTEN  =      -373.89476101 eV

  energy without entropy =     -373.89190740  energy(sigma->0) =     -373.89333421


--------------------------------------------------------------------------------------------------------




--------------------------------------- Iteration      1(   9)  ---------------------------------------


    POTLOK:  cpu time      0.0074: real time      0.0076
    SETDIJ:  cpu time      0.0021: real time      0.0022
     EDDAV:  cpu time      7.3823: real time      7.4101
       DOS:  cpu time      0.0056: real time      0.0056
    CHARGE:  cpu time      0.1815: real time      0.1822
    MIXING:  cpu time      0.0004: real time      0.0004
    --------------------------------------------
      LOOP:  cpu time      7.5794: real time      7.6080

 eigenvalue-minimisations  : 25040
 total energy-change (2. order) :-0.4003671E+00  (-0.2356763E+01)
 number of electron     419.9999773 magnetization 
 augmentation part       96.3647876 magnetization 

 Broyden mixing:
  rms(total) = 0.65474E+00    rms(broyden)= 0.65385E+00
  rms(prec ) = 0.80127E+00
  weight for this iteration     100.00

 eigenvalues of (default mixing * dielectric matrix)
  average eigenvalue GAMMA=   0.8263
  1.6356  1.0552  0.2625  0.3518

 Free energy of the ion-electron system (eV)
  ---------------------------------------------------
  alpha Z        PSCENC =      3733.46460971
  Ewald energy   TEWEN  =    -43958.87295902
  -Hartree energ DENC   =     -7646.77497653
  -exchange      EXHF   =         0.00000000
  -V(xc)+E(xc)   XCENC  =      1622.19653160
  PAW double counting   =     55963.95100605   -55436.90447337
  entropy T*S    EENTRO =        -0.00325606
  eigenvalues    EBANDS =     -6422.25158478
  atomic energy  EATOM  =     51770.89997426
  Solvation  Ediel_sol  =         0.00000000
  ---------------------------------------------------
  free energy    TOTEN  =      -374.29512816 eV

  energy without entropy =     -374.29187209  energy(sigma->0) =     -374.29350012


--------------------------------------------------------------------------------------------------------




--------------------------------------- Iteration      1(  10)  ---------------------------------------


    POTLOK:  cpu time      0.0076: real time      0.0078
    SETDIJ:  cpu time      0.0022: real time      0.0022
     EDDAV:  cpu time      7.4957: real time      7.5260
       DOS:  cpu time      0.0057: real time      0.0057
    CHARGE:  cpu time      0.1795: real time      0.1802
    MIXING:  cpu time      0.0004: real time      0.0004
    --------------------------------------------
      LOOP:  cpu time      7.6912: real time      7.7222

 eigenvalue-minimisations  : 24968
 total energy-change (2. order) : 0.1965982E+00  (-0.2695315E+00)
 number of electron     419.9999773 magnetization 
 augmentation part       96.3307570 magnetization 

 Broyden mixing:
  rms(total) = 0.47568E+00    rms(broyden)= 0.47549E+00
  rms(prec ) = 0.50596E+00
  weight for this iteration     100.00

 eigenvalues of (default mixing * dielectric matrix)
  average eigenvalue GAMMA=   0.9636
  1.7974  1.7974  0.2837  0.4697  0.4697

 Free energy of the ion-electron system (eV)
  ---------------------------------------------------
  alpha Z        PSCENC =      3733.46460971
  Ewald energy   TEWEN  =    -43958.87295902
  -Hartree energ DENC   =     -7648.67833662
  -exchange      EXHF   =         0.00000000
  -V(xc)+E(xc)   XCENC  =      1622.31113890
  PAW double counting   =     56110.92957508   -55583.09765138
  entropy T*S    EENTRO =        -0.00320329
  eigenvalues    EBANDS =     -6421.05167762
  atomic energy  EATOM  =     51770.89997426
  Solvation  Ediel_sol  =         0.00000000
  ---------------------------------------------------
  free energy    TOTEN  =      -374.09852999 eV

  energy without entropy =     -374.09532669  energy(sigma->0) =     -374.09692834


--------------------------------------------------------------------------------------------------------




--------------------------------------- Iteration      1(  11)  ---------------------------------------


    POTLOK:  cpu time      0.0074: real time      0.0076
    SETDIJ:  cpu time      0.0022: real time      0.0022
     EDDAV:  cpu time      7.6552: real time      7.6840
       DOS:  cpu time      0.0055: real time      0.0055
    CHARGE:  cpu time      0.1800: real time      0.1807
    MIXING:  cpu time      0.0004: real time      0.0004
    --------------------------------------------
      LOOP:  cpu time      7.8507: real time      7.8804

 eigenvalue-minimisations  : 25304
 total energy-change (2. order) : 0.1227440E-01  (-0.7906361E-01)
 number of electron     419.9999774 magnetization 
 augmentation part       96.1466456 magnetization 

 Broyden mixing:
  rms(total) = 0.20786E+00    rms(broyden)= 0.20781E+00
  rms(prec ) = 0.26298E+00
  weight for this iteration     100.00

 eigenvalues of (default mixing * dielectric matrix)
  average eigenvalue GAMMA=   1.0332
  2.4897  1.8022  0.7631  0.2810  0.4805  0.3824

 Free energy of the ion-electron system (eV)
  ---------------------------------------------------
  alpha Z        PSCENC =      3733.46460971
  Ewald energy   TEWEN  =    -43958.87295902
  -Hartree energ DENC   =     -7660.11875460
  -exchange      EXHF   =         0.00000000
  -V(xc)+E(xc)   XCENC  =      1622.82849765
  PAW double counting   =     56179.00873122   -55648.02221363
  entropy T*S    EENTRO =        -0.00366092
  eigenvalues    EBANDS =     -6413.27048024
  atomic energy  EATOM  =     51770.89997426
  Solvation  Ediel_sol  =         0.00000000
  ---------------------------------------------------
  free energy    TOTEN  =      -374.08625558 eV

  energy without entropy =     -374.08259466  energy(sigma->0) =     -374.08442512


--------------------------------------------------------------------------------------------------------




--------------------------------------- Iteration      1(  12)  ---------------------------------------


    POTLOK:  cpu time      0.0074: real time      0.0076
    SETDIJ:  cpu time      0.0022: real time      0.0022
     EDDAV:  cpu time      7.5297: real time      7.5585
       DOS:  cpu time      0.0057: real time      0.0057
    CHARGE:  cpu time      0.1780: real time      0.1787
    MIXING:  cpu time      0.0004: real time      0.0004
    --------------------------------------------
      LOOP:  cpu time      7.7235: real time      7.7530

 eigenvalue-minimisations  : 24728
 total energy-change (2. order) : 0.6581351E-02  (-0.4033099E-01)
 number of electron     419.9999774 magnetization 
 augmentation part       96.0905724 magnetization 

 Broyden mixing:
[...]
    127       4.3631      2.00000
    128       4.5958      2.00000
    129       4.7979      2.00000
    130       4.9430      2.00000
    131       5.1581      2.00000
    132       5.2299      2.00000
    133       5.4263      2.00000
    134       5.6142      2.00000
    135       5.6839      2.00000
    136       5.8446      2.00000
    137       5.8943      2.00000
    138       5.9237      2.00000
    139       5.9510      2.00000
    140       6.0378      2.00000
    141       6.0749      2.00000
    142       6.1403      2.00000
    143       6.2088      2.00000
    144       6.2369      2.00000
    145       6.2462      2.00000
    146       6.2870      2.00000
    147       6.2928      2.00000
    148       6.3114      2.00000
    149       6.3860      2.00000
    150       6.4109      2.00000
    151       6.4377      2.00000
    152       6.5186      2.00000
    153       6.5585      2.00000
    154       6.6024      2.00000
    155       6.7071      2.00000
    156       6.7265      2.00000
    157       6.7570      2.00000
    158       6.8094      2.00000
    159       6.8741      2.00000
    160       6.9504      2.00000
    161       7.0690      2.00000
    162       7.0869      2.00000
    163       7.1071      2.00000
    164       7.1527      2.00000
    165       7.1766      2.00000
    166       7.1889      2.00000
    167       7.2316      2.00000
    168       7.2671      2.00000
    169       7.2798      2.00000
    170       7.3252      2.00000
    171       7.3498      2.00000
    172       7.3935      2.00000
    173       7.4156      2.00000
    174       7.4328      2.00000
    175       7.4992      2.00000
    176       7.5229      2.00000
    177       7.5452      2.00000
    178       7.5759      2.00000
    179       7.5926      2.00000
    180       7.6192      2.00000
    181       7.6390      2.00000
    182       7.6573      2.00000
    183       7.6712      2.00000
    184       7.6975      2.00000
    185       7.7211      2.00000
    186       7.7342      2.00000
    187       7.7631      2.00000
    188       7.7987      2.00000
    189       7.8178      2.00000
    190       7.8393      2.00000
    191       7.8616      2.00000
    192       7.8670      2.00000
    193       7.9123      2.00000
    194       7.9496      2.00000
    195       7.9590      2.00000
    196       7.9744      2.00000
    197       8.0239      2.00000
    198       8.0492      2.00000
    199       8.0910      2.00000
    200       8.1124      2.00000
    201       8.1564      2.00000
    202       8.2018      2.00000
    203       8.2320      2.00000
    204       8.2532      2.00000
    205       8.3143      2.00000
    206       8.3246      2.00000
    207       8.3488      2.00000
    208       8.3819      2.00000
    209       8.4075      2.00000
    210       8.4249      2.00000
    211       8.4440      2.00000
    212       8.4821      2.00000
    213       8.5836      2.00000
    214       8.8061      2.00000
    215       8.9496      2.00000
    216       8.9706      2.00000
    217       9.6529      0.00000
    218      10.5290      0.00000
    219      10.7203      0.00000
    220      10.7967      0.00000
    221      10.8203      0.00000
    222      10.8520      0.00000
    223      10.9112      0.00000
    224      10.9455      0.00000
    225      10.9949      0.00000
    226      11.1347      0.00000
    227      11.1782      0.00000
    228      11.2169      0.00000
    229      11.2299      0.00000
    230      11.2796      0.00000
    231      11.3078      0.00000
    232      11.3318      0.00000
    233      11.3684      0.00000
    234      11.4073      0.00000
    235      11.4434      0.00000
    236      11.4818      0.00000
    237      11.5128      0.00000
    238      11.5542      0.00000
    239      11.5955      0.00000
    240      11.6261      0.00000
    241      11.6543      0.00000
    242      11.7090      0.00000
    243      11.7450      0.00000
    244      11.7876      0.00000
    245      11.7976      0.00000
    246      11.8460      0.00000
    247      11.8835      0.00000
    248      11.9333      0.00000
    249      11.9462      0.00000
    250      11.9853      0.00000
    251      12.0914      0.00000
    252      12.1513      0.00000


--------------------------------------------------------------------------------------------------------


 soft charge-density along one line, spin component           1
         0         1         2         3         4         5         6         7         8         9
 total charge-density along one line
 
 pseudopotential strength for first ion, spin component:           1
  5.774 -20.375  -0.001  -0.000   0.000   0.001   0.001  -0.001
-20.375   9.284  -0.001  -0.000   0.001   0.000   0.000  -0.000
 -0.001  -0.001  -9.819  -0.001  -0.001   6.071   0.001   0.001
 -0.000  -0.000  -0.001  -9.815   0.000   0.001   6.067  -0.000
  0.000   0.001  -0.001   0.000  -9.818   0.001  -0.000   6.070
  0.001   0.000   6.071   0.001   0.001   7.899  -0.000  -0.001
  0.001   0.000   0.001   6.067  -0.000  -0.000   7.901   0.000
 -0.001  -0.000   0.001  -0.000   6.070  -0.001   0.000   7.900
 -0.000  -0.000   0.000  -0.000  -0.000  -0.000   0.000   0.001
 -0.000  -0.000  -0.000  -0.001  -0.000   0.001   0.001   0.000
  0.001   0.001   0.000  -0.000  -0.000  -0.000   0.000   0.000
  0.000   0.000  -0.000   0.000  -0.000   0.000  -0.000   0.001
  0.000   0.000   0.000   0.000   0.000  -0.001   0.000  -0.000
 -0.001  -0.000   0.000  -0.000  -0.001  -0.000   0.000   0.001
 -0.001  -0.000  -0.000  -0.001  -0.000   0.001   0.001   0.000
  0.002   0.001   0.000  -0.000  -0.000  -0.000   0.000   0.000
  0.000   0.000  -0.000   0.000  -0.000   0.000  -0.000   0.001
  0.001   0.000   0.001   0.000   0.000  -0.001   0.000  -0.001
 total augmentation occupancy for first ion, spin component:           1
  1.995  -0.047   0.000   0.000  -0.000   0.000   0.000   0.000  -0.009   0.002   0.002   0.003   0.001   0.007  -0.002  -0.002
 -0.047   1.328   0.001   0.002  -0.001   0.001  -0.000   0.005  -0.016   0.001   0.038  -0.005   0.017  -0.003   0.006  -0.015
  0.000   0.001   1.996  -0.000   0.000  -0.030   0.001  -0.002   0.004   0.006   0.000   0.004   0.001  -0.003  -0.004  -0.000
  0.000   0.002  -0.000   1.996  -0.000   0.001  -0.030   0.001   0.004   0.005   0.000   0.004   0.001  -0.002  -0.003  -0.001
 -0.000  -0.001   0.000  -0.000   1.996  -0.002   0.001  -0.030   0.005   0.003   0.000   0.008  -0.001  -0.003  -0.002   0.000
  0.000   0.001  -0.030   0.001  -0.002   0.067  -0.001   0.003  -0.007  -0.012  -0.001  -0.002  -0.004   0.005   0.009   0.001
  0.000  -0.000   0.001  -0.030   0.001  -0.001   0.069  -0.001  -0.002  -0.005   0.004  -0.007  -0.001   0.000   0.004  -0.001
  0.000   0.005  -0.002   0.001  -0.030   0.003  -0.001   0.068  -0.007   0.001  -0.003  -0.015   0.006   0.004  -0.001   0.001
 -0.009  -0.016   0.004   0.004   0.005  -0.007  -0.002  -0.007   3.405  -0.042   0.082  -0.053  -0.004  -1.437   0.028  -0.034
  0.002   0.001   0.006   0.005   0.003  -0.012  -0.005   0.001  -0.042   3.402   0.011   0.070  -0.019   0.028  -1.438  -0.004
  0.002   0.038   0.000   0.000   0.000  -0.001   0.004  -0.003   0.082   0.011   2.778   0.014  -0.017  -0.033  -0.004  -1.266
  0.003  -0.005   0.004   0.004   0.008  -0.002  -0.007  -0.015  -0.053   0.070   0.014   3.373   0.017   0.032  -0.047  -0.005
  0.001   0.017   0.001   0.001  -0.001  -0.004  -0.001   0.006  -0.004  -0.019  -0.017   0.017   2.680   0.002   0.008   0.005
  0.007  -0.003  -0.003  -0.002  -0.003   0.005   0.000   0.004  -1.437   0.028  -0.033   0.032   0.002   0.618  -0.016   0.013
 -0.002   0.006  -0.004  -0.003  -0.002   0.009   0.004  -0.001   0.028  -1.438  -0.004  -0.047   0.008  -0.016   0.619   0.002
 -0.002  -0.015  -0.000  -0.001   0.000   0.001  -0.001   0.001  -0.034  -0.004  -1.266  -0.005   0.005   0.013   0.002   0.584
 -0.002   0.008  -0.002  -0.003  -0.005   0.000   0.005   0.010   0.032  -0.048  -0.005  -1.428  -0.006  -0.018   0.028   0.002
 -0.001  -0.005  -0.000  -0.000  -0.000   0.001   0.000  -0.002   0.002   0.008   0.005  -0.007  -1.227  -0.001  -0.003  -0.001


------------------------ aborting loop because EDIFF is reached ----------------------------------------


    CHARGE:  cpu time      0.1810: real time      0.1817
    FORLOC:  cpu time      0.0013: real time      0.0014
    FORNL :  cpu time      3.6927: real time      3.7126
    STRESS:  cpu time      3.1282: real time      3.1419
    FORCOR:  cpu time      0.0105: real time      0.0105
    FORHAR:  cpu time      0.0032: real time      0.0032
    MIXING:  cpu time      0.0010: real time      0.0010
    OFIELD:  cpu time      0.0000: real time      0.0000

  FORCE on cell =-STRESS in cart. coord.  units (eV):
  Direction    XX          YY          ZZ          XY          YZ          ZX
  --------------------------------------------------------------------------------------
  Alpha Z  3733.46461  3733.46461  3733.46461
  Ewald  -14738.44300-14623.36502-14597.29576     0.05042     2.10768    -5.58687
  Hartree  2467.26168  2585.46505  2605.59465    -0.67914     2.42611    -4.60726
  E(xc)   -1934.77143 -1934.78050 -1934.80273     0.02884    -0.01749     0.00148
  Local    3470.92896  3237.43503  3193.10178    -1.65433    -4.27432     9.30331
  n-local  -624.62768  -627.47470  -627.17665     1.79399     0.16340     0.72651
  augment  1244.78119  1245.10185  1244.66482     0.30626    -0.01218     0.12654
  Kinetic  6326.19600  6328.18740  6326.33876    -0.24790    -0.32396    -0.13344
  Fock        0.00000     0.00000     0.00000     0.00000     0.00000     0.00000
  -------------------------------------------------------------------------------------
  Total     -55.20966   -55.96627   -56.11053    -0.40185     0.06924    -0.16974
  in kB    -155.24514  -157.37266  -157.77830    -1.12998     0.19470    -0.47730
  external pressure =     -156.80 kB  Pullay stress =        0.00 kB


 VOLUME and BASIS-vectors are now :
 -----------------------------------------------------------------------------
  energy-cutoff  :      250.00
  volume of cell :      569.78
      direct lattice vectors                 reciprocal lattice vectors
    13.160000000  0.000000000  0.000000000     0.075987842  0.000000000  0.000000000
     0.000000000  6.580000000  0.000000000     0.000000000  0.151975684  0.000000000
     0.000000000  0.000000000  6.580000000     0.000000000  0.000000000  0.151975684

  length of vectors
    13.160000000  6.580000000  6.580000000     0.075987842  0.151975684  0.151975684


 FORCES acting on ions
    electron-ion (+dipol)            ewald-force                    non-local-force                 convergence-correction
 -----------------------------------------------------------------------------------------------
   -.108E+03 -.941E+01 0.324E+02   0.108E+03 0.918E+01 -.326E+02   -.171E+00 0.892E-01 0.172E+00   -.353E-04 0.278E-05 -.632E-05
   -.181E+02 -.487E+02 -.288E+02   0.182E+02 0.479E+02 0.286E+02   -.146E+00 0.171E+00 0.236E-01   0.657E-04 -.377E-04 -.188E-04
   -.135E+03 -.687E+01 -.288E+02   0.134E+03 0.715E+01 0.286E+02   -.187E+00 -.191E+00 -.400E-01   -.664E-04 -.108E-05 -.150E-04
   0.325E+01 0.487E+02 -.288E+02   -.316E+01 -.479E+02 0.286E+02   0.221E+00 -.163E+00 0.680E-01   0.420E-04 0.330E-04 -.143E-04
   0.360E+02 0.732E+01 -.840E+01   -.360E+02 -.715E+01 0.817E+01   0.194E+00 0.851E-01 0.132E+00   -.114E-04 -.285E-04 -.311E-05
   -.108E+03 -.939E+01 -.324E+02   0.108E+03 0.918E+01 0.326E+02   -.172E+00 0.669E-01 -.165E+00   -.401E-04 0.382E-05 0.919E-05
   0.577E+02 -.941E+01 0.701E+02   -.579E+02 0.918E+01 -.694E+02   -.108E+00 -.327E-01 -.723E-01   -.147E-04 0.654E-05 -.602E-04
   0.115E+03 0.519E+02 -.894E+01   -.115E+03 -.516E+02 0.879E+01   -.171E+00 -.626E-01 0.177E-01   0.106E-04 0.473E-04 0.785E-06
   0.937E+02 0.995E+01 -.751E+02   -.940E+02 -.989E+01 0.747E+02   0.243E+00 0.682E-01 -.281E-01   -.560E-05 -.566E-05 0.654E-04
   0.157E+03 -.520E+02 0.893E+01   -.157E+03 0.516E+02 -.879E+01   0.638E+00 0.101E+00 0.327E-02   -.142E-04 -.581E-04 -.382E-05
   0.936E+02 0.992E+01 0.751E+02   -.940E+02 -.989E+01 -.747E+02   0.175E+00 0.104E+00 0.476E-01   -.101E-04 -.711E-05 -.677E-04
   -.297E+01 -.766E+01 0.900E+01   0.341E+01 0.770E+01 -.879E+01   -.494E+00 -.121E+00 -.445E-01   0.444E-04 0.285E-04 0.330E-05
   0.144E+03 0.519E+02 0.900E+01   -.144E+03 -.516E+02 -.879E+01   0.506E+00 -.602E-01 -.472E-01   -.307E-05 0.587E-04 -.255E-05
   -.686E+02 -.597E+02 0.651E+02   0.691E+02 0.593E+02 -.648E+02   -.430E+00 0.385E-01 0.542E-02   -.779E-05 0.171E-05 -.196E-04
   -.299E+02 -.412E+02 0.244E+02   0.304E+02 0.406E+02 -.242E+02   -.288E+00 0.297E-01 -.296E-01   0.683E-04 -.724E-05 0.817E-05
   -.665E+02 0.799E+01 -.275E+02   0.663E+02 -.777E+01 0.276E+02   0.734E-01 -.135E-03 -.341E-02   -.622E-05 -.415E-05 -.399E-05
   0.796E+02 0.471E+02 -.354E+02   -.794E+02 -.466E+02 0.354E+02   0.467E+00 0.288E-01 -.867E-01   0.121E-04 -.106E-04 0.404E-04
   0.122E+03 -.408E+02 -.715E+01   -.122E+03 0.406E+02 0.691E+01   0.140E-01 -.560E-03 0.573E-01   0.189E-04 -.318E-04 0.780E-05
   -.897E+01 -.624E+01 -.712E+01   0.944E+01 0.605E+01 0.691E+01   -.270E+00 -.979E-01 0.604E-01   -.539E-05 0.220E-04 -.583E-06
   -.911E+02 -.581E+01 0.244E+02   0.902E+02 0.605E+01 -.242E+02   0.213E+00 -.106E+00 0.363E-01   -.605E-04 -.945E-05 0.671E-05
   0.716E+02 0.471E+02 0.354E+02   -.715E+02 -.466E+02 -.354E+02   0.428E+00 0.313E-01 0.290E-01   0.281E-04 -.109E-04 -.401E-04
   0.118E+02 0.521E+02 0.309E+02   -.120E+02 -.516E+02 -.308E+02   0.351E+00 0.158E+00 0.315E-01   0.873E-04 0.385E-04 0.164E-04
   -.845E+02 0.100E+02 0.350E+02   0.844E+02 -.989E+01 -.351E+02   0.115E-02 0.781E-01 -.102E+00   -.219E-04 -.828E-05 0.721E-05
   0.622E+02 -.100E+02 -.751E+02   -.624E+02 0.989E+01 0.747E+02   -.108E+00 -.890E-01 -.182E+00   -.991E-05 0.709E-05 0.702E-04
   -.157E+03 0.750E+01 -.309E+02   0.157E+03 -.770E+01 0.308E+02   -.668E+00 -.204E-01 -.179E-01   -.391E-04 0.119E-04 -.165E-04
   -.897E+02 0.596E+02 -.652E+02   0.902E+02 -.593E+02 0.648E+02   -.410E+00 0.886E-01 -.270E-01   -.455E-04 -.121E-04 0.290E-04
   0.112E+03 -.596E+02 -.451E+02   -.112E+03 0.593E+02 0.450E+02   0.478E+00 -.942E-01 0.462E-01   0.806E-04 0.530E-06 0.377E-04
   -.787E+02 -.597E+02 -.651E+02   0.790E+02 0.593E+02 0.648E+02   -.536E+00 -.248E-01 -.690E-01   0.804E-05 0.104E-04 0.280E-04
   -.583E+02 0.597E+02 0.652E+02   0.580E+02 -.593E+02 -.648E+02   0.305E+00 0.674E-01 0.495E-01   -.335E-04 -.926E-05 -.264E-04
   0.198E+02 0.783E+01 0.897E+01   -.196E+02 -.770E+01 -.879E+01   0.139E+00 0.524E-01 0.411E-01   0.525E-05 -.284E-04 -.501E-05
   -.155E+03 0.755E+01 0.309E+02   0.155E+03 -.770E+01 -.308E+02   -.780E-01 -.597E-01 0.430E-01   -.828E-04 0.127E-04 0.140E-04
   0.804E+02 -.596E+02 0.450E+02   -.799E+02 0.593E+02 -.450E+02   -.204E+00 -.105E+00 -.144E-01   0.748E-04 -.949E-06 -.380E-04
 -----------------------------------------------------------------------------------------------
   -.404E-02 -.305E-01 0.651E-01   0.682E-12 -.142E-12 -.163E-12   0.412E-02 0.305E-01 -.651E-01   0.324E-04 0.144E-04 0.217E-05
 
 
 POSITION                                       TOTAL-FORCE (eV/Angst)
 -----------------------------------------------------------------------------------
     11.51500      4.93500      4.93500        -0.081072     -0.142976     -0.049124
      0.00000      3.29000      0.00000        -0.007898     -0.568648     -0.205478
      9.87000      0.00000      0.00000        -0.808441      0.089671     -0.254505
      0.00000      0.00000      0.00000         0.311554      0.588685     -0.202583
      6.58000      3.29000      3.29000         0.222569      0.254440     -0.101748
     11.51500      4.93500      1.64500        -0.166015     -0.144946      0.074448
      4.93500      1.64500      4.93500        -0.316336     -0.260271      0.672867
      3.29000      0.00000      3.29000         0.152777      0.212722     -0.132165
      4.93500      4.93500      1.64500        -0.108824      0.132810     -0.469252
      3.29000      3.29000      0.00000         0.500065     -0.219412      0.137460
      4.93500      4.93500      4.93500        -0.182765      0.131587      0.485783
      6.58000      0.00000      0.00000        -0.052670     -0.084381      0.158301
      3.29000      0.00000      0.00000         0.371475      0.224178      0.161542
      8.22500      4.93500      4.93500         0.001549     -0.340396      0.313279
      0.00000      3.29000      3.29000         0.223688     -0.650163      0.226498
     11.51500      1.64500      1.64500        -0.173392      0.215690      0.141557
      1.64500      4.93500      1.64500         0.707492      0.476945     -0.082882
      3.29000      3.29000      3.29000         0.265659     -0.231926     -0.186856
      6.58000      0.00000      3.29000         0.205338     -0.288948     -0.154368
      9.87000      0.00000      3.29000        -0.696617      0.133159      0.259703
      1.64500      4.93500      4.93500         0.539388      0.484124      0.055245
      0.00000      0.00000      3.29000         0.127604      0.620130      0.198363
     11.51500      1.64500      4.93500        -0.173168      0.189574     -0.219545
      4.93500      1.64500      1.64500        -0.261934     -0.200923     -0.633638
      9.87000      3.29000      0.00000        -0.902859     -0.226017     -0.194159
      8.22500      1.64500      1.64500        -0.001145      0.384528     -0.396094
      1.64500      1.64500      1.64500         0.333385     -0.358844      0.012551
      8.22500      4.93500      1.64500        -0.236787     -0.427424     -0.410706
      8.22500      1.64500      4.93500         0.012850      0.404769      0.416580
      6.58000      3.29000      0.00000         0.367449      0.181613      0.220377
      9.87000      3.29000      3.29000        -0.466087     -0.213207      0.180188
      1.64500      1.64500      4.93500         0.293168     -0.366144     -0.021636
 -----------------------------------------------------------------------------------
    total drift:                                0.000107     -0.000006     -0.000007


--------------------------------------------------------------------------------------------------------



  FREE ENERGIE OF THE ION-ELECTRON SYSTEM (eV)
  ---------------------------------------------------
  free  energy   TOTEN  =      -374.05125678 eV

  energy  without entropy=     -374.04779959  energy(sigma->0) =     -374.04952819
 


--------------------------------------------------------------------------------------------------------


    POTLOK:  cpu time      0.0097: real time      0.0881


--------------------------------------------------------------------------------------------------------


     LOOP+:  cpu time    251.2228: real time    252.5248
    4ORBIT:  cpu time      0.0000: real time      0.0000

 total amount of memory used by VASP MPI-rank0    61379. kBytes
=======================================================================

   base      :      30000. kBytes
   nonl-proj :       9945. kBytes
   fftplans  :        778. kBytes
   grid      :       1458. kBytes
   one-center:         46. kBytes
   wavefun   :      19152. kBytes
 
  
  
 General timing and accounting informations for this job:
 ========================================================
  
                  Total CPU time used (sec):      256.834
                            User time (sec):      254.152
                          System time (sec):        2.681
                         Elapsed time (sec):      258.898
  
                   Maximum memory used (kb):      108732.
                   Average memory used (kb):          N/A
  
                          Minor page faults:        11040
                          Major page faults:            0
                 Voluntary context switches:          320
