 vasp.6.3.1 04May22 (build Jul 26 2022 04:02:40) complex                        
  
 executed on             LinuxIFC date 2023.11.30  01:48:56
 running on   48 total cores
 distrk:  each k-point on   48 cores,    1 groups
 distr:  one band on NCORE=  12 cores,    4 groups


--------------------------------------------------------------------------------------------------------


 INCAR:
   ISTART = 0
   NWRITE = 2
   PREC = Accurate
   ENCUT = 250
   GGA = PE
   NSW = 0
   ISIF = 2
   ISYM = 2
   NBLOCK = 1
   KBLOCK = 1
   IBRION = -1
   NELM = 80
   EDIFF = 1E-08
   EDIFFG = -0.01
   ALGO = Normal
   LDIAG = .TRUE.
   LREAL = .FALSE.
   ISMEAR = 0
   SIGMA = 0.02
   ICHARG = 2
   LPLANE = .TRUE.
   NPAR = 4
   LSCALU = .FALSE.
   NSIM = 4
   LWAVE = .FALSE.
   LCHARG = .FALSE.
   ICORELEVEL = 1

 POTCAR:    PAW_PBE Nb_sv 25May2007               
 POTCAR:    PAW_PBE Mo_sv 02Feb2006               
 POTCAR:    PAW_PBE Ta_pv 07Sep2000               
 POTCAR:    PAW_PBE W_sv 04Sep2015                
 POTCAR:    PAW_PBE Nb_sv 25May2007               
   SHA256 =  0e8fc07c9fcd1164cf2ade22d0399fd28f85e91cd773dfa6cf24839a48c95e24 Nb_sv/POTCAR          
   COPYR  = (c) Copyright 25May2007 Georg Kresse                                                    
   COPYR  = This file is part of the software VASP. Any use, copying, and all other rights are regul
   COPYR  = If you do not have a valid VASP license, you may not use, copy or distribute this file. 
   VRHFIN =Nb: 4p5s4d                                                                               
   LEXCH  = PE                                                                                      
   EATOM  =  1555.1913 eV,  114.3033 Ry                                                             
                                                                                                    
   TITEL  = PAW_PBE Nb_sv 25May2007                                                                 
   LULTRA =        F    use ultrasoft PP ?                                                          
   IUNSCR =        1    unscreen: 0-lin 1-nonlin 2-no                                               
   RPACOR =    1.800    partial core radius                                                         
   POMASS =   92.910; ZVAL   =   13.000    mass and valenz                                          
   RCORE  =    2.400    outmost cutoff radius                                                       
   RWIGS  =    2.400; RWIGS  =    1.270    wigner-seitz radius (au A)                               
   ENMAX  =  293.235; ENMIN  =  219.927 eV                                                          
   ICORE  =        3    local potential                                                             
   LCOR   =        T    correct aug charges                                                         
   LPAW   =        T    paw PP                                                                      
   EAUG   =  455.659                                                                                
   DEXC   =    0.000                                                                                
   RMAX   =    2.456    core radius for proj-oper                                                   
   RAUG   =    1.300    factor for augmentation sphere                                              
   RDEP   =    2.451    radius for radial grids                                                     
   RDEPT  =    1.956    core radius for aug-charge                                                  
                                                                                                    
   Atomic configuration                                                                             
   11 entries                                                                                       
     n  l   j            E        occ.                                                              
     1  0  0.50    -18805.2457   2.0000                                                             
     2  0  0.50     -2630.2869   2.0000                                                             
     2  1  1.50     -2348.4046   6.0000                                                             
     3  0  0.50      -438.8757   2.0000                                                             
     3  1  1.50      -346.7588   6.0000                                                             
     3  2  2.50      -196.2560  10.0000                                                             
     4  0  0.50       -58.3859   2.0000                                                             
     5  0  0.50        -3.9816   1.0000                                                             
     4  1  1.50       -34.5141   6.0000                                                             
     4  2  2.50        -3.0408   4.0000                                                             
     4  3  2.50        -1.3606   0.0000                                                             
   Description                                                                                      
     l       E           TYP  RCUT    TYP  RCUT                                                     
     0    -58.3859094     23  2.200                                                                 
     0     -3.9816262     23  2.200                                                                 
     1    -34.5140738     23  2.200                                                                 
     1     13.6058260     23  2.200                                                                 
     2     -3.0408010     23  2.200                                                                 
     2     -0.1283038     23  2.200                                                                 
     3     -1.3605826     23  2.400                                                                 
  local pseudopotential read in
  partial core-charges read in
  partial kinetic energy density read in
  atomic valenz-charges read in
  non local Contribution for L=           0  read in
    real space projection operators read in
  non local Contribution for L=           0  read in
    real space projection operators read in
  non local Contribution for L=           1  read in
    real space projection operators read in
  non local Contribution for L=           1  read in
    real space projection operators read in
  non local Contribution for L=           2  read in
    real space projection operators read in
  non local Contribution for L=           2  read in
    real space projection operators read in
    PAW grid and wavefunctions read in
 
   number of l-projection  operators is LMAX  =           6
   number of lm-projection operators is LMMAX =          18
 
 POTCAR:    PAW_PBE Mo_sv 02Feb2006               
   SHA256 =  2731df97e41766cc617548c5a8267718fdef1f509ac6bafa01e745abea2bdfaa Mo_sv/POTCAR          
   COPYR  = (c) Copyright 02Feb2006 Georg Kresse                                                    
   COPYR  = This file is part of the software VASP. Any use, copying, and all other rights are regul
   COPYR  = If you do not have a valid VASP license, you may not use, copy or distribute this file. 
   VRHFIN =Mo: 4p5s4d                                                                               
   LEXCH  = PE                                                                                      
   EATOM  =  1862.2866 eV,  136.8742 Ry                                                             
                                                                                                    
   TITEL  = PAW_PBE Mo_sv 02Feb2006                                                                 
   LULTRA =        F    use ultrasoft PP ?                                                          
   IUNSCR =        1    unscreen: 0-lin 1-nonlin 2-no                                               
   RPACOR =    2.200    partial core radius                                                         
   POMASS =   95.940; ZVAL   =   14.000    mass and valenz                                          
   RCORE  =    2.500    outmost cutoff radius                                                       
   RWIGS  =    2.750; RWIGS  =    1.455    wigner-seitz radius (au A)                               
   ENMAX  =  242.676; ENMIN  =  182.007 eV                                                          
   ICORE  =        3    local potential                                                             
   LCOR   =        T    correct aug charges                                                         
   LPAW   =        T    paw PP                                                                      
   EAUG   =  446.014                                                                                
   DEXC   =    0.000                                                                                
   RMAX   =    2.563    core radius for proj-oper                                                   
   RAUG   =    1.300    factor for augmentation sphere                                              
   RDEP   =    2.641    radius for radial grids                                                     
   RDEPT  =    2.031    core radius for aug-charge                                                  
                                                                                                    
   Atomic configuration                                                                             
   11 entries                                                                                       
     n  l   j            E        occ.                                                              
     1  0  0.50    -19819.0341   2.0000                                                             
     2  0  0.50     -2799.0127   2.0000                                                             
     2  1  1.50     -2502.0276   6.0000                                                             
     3  0  0.50      -476.4449   2.0000                                                             
     3  1  1.50      -379.1496   6.0000                                                             
     3  2  2.50      -220.9367  10.0000                                                             
     4  0  0.50       -64.3378   2.0000                                                             
     5  0  0.50        -4.0862   1.0000                                                             
     4  1  1.50       -38.4773   6.0000                                                             
     4  2  2.50        -3.7535   5.0000                                                             
     4  3  2.50        -1.3606   0.0000                                                             
   Description                                                                                      
     l       E           TYP  RCUT    TYP  RCUT                                                     
     0    -64.3377829     23  2.100                                                                 
     0     -4.0861640     23  2.400                                                                 
     1    -38.4772993     23  2.100                                                                 
     1     13.6058260     23  2.100                                                                 
     2     -3.7534941     23  2.400                                                                 
     2     -5.1140767     23  2.400                                                                 
     3     -4.0817478     23  2.500                                                                 
  local pseudopotential read in
  partial core-charges read in
  partial kinetic energy density read in
  atomic valenz-charges read in
  non local Contribution for L=           0  read in
    real space projection operators read in
  non local Contribution for L=           0  read in
    real space projection operators read in
  non local Contribution for L=           1  read in
    real space projection operators read in
  non local Contribution for L=           1  read in
    real space projection operators read in
  non local Contribution for L=           2  read in
    real space projection operators read in
  non local Contribution for L=           2  read in
    real space projection operators read in
    PAW grid and wavefunctions read in
 
   number of l-projection  operators is LMAX  =           6
   number of lm-projection operators is LMMAX =          18
 
 POTCAR:    PAW_PBE Ta_pv 07Sep2000               
   SHA256 =  00d0a14a36c127416459414afb8617d9754996fffa60a2465888e660b20a452f Ta_pv/POTCAR          
   COPYR  = (c) Copyright 07Sep2000 Georg Kresse                                                    
   COPYR  = This file is part of the software VASP. Any use, copying, and all other rights are regul
   COPYR  = If you do not have a valid VASP license, you may not use, copy or distribute this file. 
   VRHFIN =Ta:  5p6s5d                                                                              
   LEXCH  = PE                                                                                      
   EATOM  =  1047.1984 eV,   76.9669 Ry                                                             
                                                                                                    
   TITEL  = PAW_PBE Ta_pv 07Sep2000                                                                 
   LULTRA =        F    use ultrasoft PP ?                                                          
   IUNSCR =        1    unscreen: 0-lin 1-nonlin 2-no                                               
   RPACOR =    2.330    partial core radius                                                         
   POMASS =  180.948; ZVAL   =   11.000    mass and valenz                                          
   RCORE  =    2.500    outmost cutoff radius                                                       
   RWIGS  =    2.840; RWIGS  =    1.503    wigner-seitz radius (au A)                               
   ENMAX  =  223.667; ENMIN  =  167.750 eV                                                          
   RCLOC  =    2.205    cutoff for local pot                                                        
   LCOR   =        T    correct aug charges                                                         
   LPAW   =        T    paw PP                                                                      
   EAUG   =  377.421                                                                                
   DEXC   =    0.000                                                                                
   RMAX   =    2.551    core radius for proj-oper                                                   
   RAUG   =    1.300    factor for augmentation sphere                                              
   RDEP   =    2.526    radius for radial grids                                                     
   RDEPT  =    2.132    core radius for aug-charge                                                  
                                                                                                    
   Atomic configuration                                                                             
   15 entries                                                                                       
     n  l   j            E        occ.                                                              
     1  0  0.50    -67341.2801   2.0000                                                             
     2  0  0.50    -11566.9369   2.0000                                                             
     2  1  1.50    -10134.1175   6.0000                                                             
     3  0  0.50     -2648.5614   2.0000                                                             
     3  1  1.50     -2222.6006   6.0000                                                             
     3  2  2.50     -1726.3114  10.0000                                                             
     4  0  0.50      -538.6957   2.0000                                                             
     4  1  1.50      -399.0125   6.0000                                                             
     4  2  2.50      -220.3955  10.0000                                                             
     4  3  3.50       -23.0371  14.0000                                                             
     5  0  0.50       -71.2900   2.0000                                                             
     5  1  1.50       -37.8224   6.0000                                                             
     5  2  2.50        -2.6455   4.0000                                                             
     6  0  0.50        -4.9623   1.0000                                                             
     5  3  2.50        -1.3606   0.0000                                                             
   Description                                                                                      
     l       E           TYP  RCUT    TYP  RCUT                                                     
     1    -37.8224449     23  2.500                                                                 
     1      1.3605826     23  2.500                                                                 
     2     -2.6454718     23  2.500                                                                 
     2     -0.6258570     23  2.500                                                                 
     0     -4.9622674     23  2.500                                                                 
     0      4.7531427     23  2.500                                                                 
  local pseudopotential read in
  partial core-charges read in
  partial kinetic energy density read in
  atomic valenz-charges read in
  non local Contribution for L=           1  read in
    real space projection operators read in
  non local Contribution for L=           1  read in
    real space projection operators read in
  non local Contribution for L=           2  read in
    real space projection operators read in
  non local Contribution for L=           2  read in
    real space projection operators read in
  non local Contribution for L=           0  read in
    real space projection operators read in
  non local Contribution for L=           0  read in
    real space projection operators read in
    PAW grid and wavefunctions read in
 
   number of l-projection  operators is LMAX  =           6
   number of lm-projection operators is LMMAX =          18
 
 POTCAR:    PAW_PBE W_sv 04Sep2015                
   SHA256 =  931c2d770f65867ef30f3db3421922900fc0890ebac5c3e12f63b6a2064023d7 W_sv/POTCAR           
   COPYR  = (c) Copyright 04Sep2015 Georg Kresse                                                    
   COPYR  = This file is part of the software VASP. Any use, copying, and all other rights are regul
   COPYR  = If you do not have a valid VASP license, you may not use, copy or distribute this file. 
   VRHFIN =W : 5p6s5d                                                                               
   LEXCH  = PE                                                                                      
   EATOM  =  1865.5791 eV,  137.1162 Ry                                                             
                                                                                                    
   TITEL  = PAW_PBE W_sv 04Sep2015                                                                  
   LULTRA =        F    use ultrasoft PP ?                                                          
   IUNSCR =        1    unscreen: 0-lin 1-nonlin 2-no                                               
   RPACOR =    2.330    partial core radius                                                         
   POMASS =  183.850; ZVAL   =   14.000    mass and valenz                                          
   RCORE  =    2.500    outmost cutoff radius                                                       
   RWIGS  =    2.750; RWIGS  =    1.455    wigner-seitz radius (au A)                               
   ENMAX  =  223.057; ENMIN  =  167.293 eV                                                          
   ICORE  =        3    local potential                                                             
   LCOR   =        T    correct aug charges                                                         
   LPAW   =        T    paw PP                                                                      
   EAUG   =  373.438                                                                                
   DEXC   =    0.000                                                                                
   RMAX   =    2.565    core radius for proj-oper                                                   
   RAUG   =    1.300    factor for augmentation sphere                                              
   RDEP   =    2.539    radius for radial grids                                                     
   RDEPT  =    2.126    core radius for aug-charge                                                  
                                                                                                    
   Atomic configuration                                                                             
   15 entries                                                                                       
     n  l   j            E        occ.                                                              
     1  0  0.50    -69465.5834   2.0000                                                             
     2  0  0.50    -11986.2640   2.0000                                                             
     2  1  1.50    -10479.8613   6.0000                                                             
     3  0  0.50     -2759.0756   2.0000                                                             
     3  1  1.50     -2313.1855   6.0000                                                             
     3  2  2.50     -1801.1183  10.0000                                                             
     4  0  0.50      -567.6789   2.0000                                                             
     4  1  1.50      -421.4692   6.0000                                                             
     4  2  2.50      -236.3471  10.0000                                                             
     4  3  3.50       -31.2665  14.0000                                                             
     5  0  0.50       -77.1084   2.0000                                                             
     6  0  0.50        -5.1438   1.0000                                                             
     5  1  1.50       -41.3856   6.0000                                                             
     5  2  2.50        -3.3185   5.0000                                                             
     5  3  2.50        -1.3606   0.0000                                                             
   Description                                                                                      
     l       E           TYP  RCUT    TYP  RCUT                                                     
     0    -77.1084470     23  2.100                                                                 
     0     -5.1437956     23  2.300                                                                 
     1    -41.3855615     23  2.500                                                                 
     1     -2.7211652     23  2.500                                                                 
     2     -3.3185025     23  2.500                                                                 
     2     -1.5965151     23  2.500                                                                 
     3     -1.3605826     23  2.500                                                                 
  local pseudopotential read in
  partial core-charges read in
  partial kinetic energy density read in
  kinetic energy density of atom read in
  atomic valenz-charges read in
  non local Contribution for L=           0  read in
    real space projection operators read in
  non local Contribution for L=           0  read in
    real space projection operators read in
  non local Contribution for L=           1  read in
    real space projection operators read in
  non local Contribution for L=           1  read in
    real space projection operators read in
  non local Contribution for L=           2  read in
    real space projection operators read in
  non local Contribution for L=           2  read in
    real space projection operators read in
    PAW grid and wavefunctions read in
 
   number of l-projection  operators is LMAX  =           6
   number of lm-projection operators is LMMAX =          18
 
  PAW_PBE Nb_sv 25May2007               :
 energy of atom  1       EATOM=-1555.1913
 kinetic energy error for atom=    0.2155 (will be added to EATOM!!)
  PAW_PBE Mo_sv 02Feb2006               :
 energy of atom  2       EATOM=-1862.2866
 kinetic energy error for atom=    0.1102 (will be added to EATOM!!)
  PAW_PBE Ta_pv 07Sep2000               :
 energy of atom  3       EATOM=-1047.1984
 kinetic energy error for atom=    0.0394 (will be added to EATOM!!)
  PAW_PBE W_sv 04Sep2015                :
 energy of atom  4       EATOM=-1865.5791
 kinetic energy error for atom=    0.0589 (will be added to EATOM!!)
 
 
 POSCAR: Nb-Mo-Ta-W alloy
  positions in direct lattice
  No initial velocities read in
 exchange correlation table for  LEXCH =        8
   RHO(1)=    0.500       N(1)  =     2000
   RHO(2)=  100.500       N(2)  =     4000
 


--------------------------------------------------------------------------------------------------------


 ion  position               nearest neighbor table
   1  0.000  0.500  0.500-   4 2.85   5 2.85   9 2.85  10 2.85  11 2.85  13 2.85  14 2.85  15 2.85

   2  0.500  0.000  0.000-   4 2.85   5 2.85   9 2.85  10 2.85  11 2.85  13 2.85  14 2.85  15 2.85
                            12 3.29  12 3.29
   3  0.000  0.000  0.500-   4 2.85   5 2.85   9 2.85  10 2.85  11 2.85  13 2.85  14 2.85  15 2.85
                            12 3.29  12 3.29
   4  0.250  0.250  0.750-   1 2.85   2 2.85   3 2.85   6 2.85   7 2.85   8 2.85  12 2.85  16 2.85

   5  0.750  0.250  0.750-   1 2.85   2 2.85   3 2.85   6 2.85   7 2.85   8 2.85  12 2.85  16 2.85
                            14 3.29  14 3.29
   6  0.500  0.500  0.500-   4 2.85   5 2.85   9 2.85  10 2.85  11 2.85  13 2.85  14 2.85  15 2.85

   7  0.000  0.500  0.000-   4 2.85   5 2.85   9 2.85  10 2.85  11 2.85  13 2.85  14 2.85  15 2.85
                            12 3.29   8 3.29  12 3.29   8 3.29
   8  0.500  0.500  0.000-   4 2.85   5 2.85   9 2.85  10 2.85  11 2.85  13 2.85  14 2.85  15 2.85
                             7 3.29   7 3.29
   9  0.250  0.750  0.750-   1 2.85   2 2.85   3 2.85   6 2.85   7 2.85   8 2.85  12 2.85  16 2.85
                            15 3.29  11 3.29  11 3.29  15 3.29
  10  0.250  0.250  0.250-   1 2.85   2 2.85   3 2.85   6 2.85   7 2.85   8 2.85  12 2.85  16 2.85
                            14 3.29  11 3.29  11 3.29  14 3.29
  11  0.250  0.750  0.250-   1 2.85   2 2.85   3 2.85   6 2.85   7 2.85   8 2.85  12 2.85  16 2.85
                             9 3.29  13 3.29  10 3.29   9 3.29  10 3.29  13 3.29
  12  0.000  0.000  0.000-   4 2.85   5 2.85   9 2.85  10 2.85  11 2.85  13 2.85  14 2.85  15 2.85
                             2 3.29   3 3.29   7 3.29   3 3.29   7 3.29   2 3.29
  13  0.750  0.750  0.250-   1 2.85   2 2.85   3 2.85   6 2.85   7 2.85   8 2.85  12 2.85  16 2.85
                            14 3.29  15 3.29  11 3.29  15 3.29  14 3.29  11 3.29
  14  0.750  0.250  0.250-   1 2.85   2 2.85   3 2.85   6 2.85   7 2.85   8 2.85  12 2.85  16 2.85
                             5 3.29  13 3.29  10 3.29   5 3.29  13 3.29  10 3.29
  15  0.750  0.750  0.750-   1 2.85   2 2.85   3 2.85   6 2.85   7 2.85   8 2.85  12 2.85  16 2.85
                            13 3.29   9 3.29  13 3.29   9 3.29
  16  0.500  0.000  0.500-   4 2.85   5 2.85   9 2.85  10 2.85  11 2.85  13 2.85  14 2.85  15 2.85

 
  LATTYP: Found a simple cubic cell.
 ALAT       =     6.5800000000
  
  Lattice vectors:
  
 A1 = (   6.5800000000,   0.0000000000,   0.0000000000)
 A2 = (   0.0000000000,   6.5800000000,   0.0000000000)
 A3 = (   0.0000000000,   0.0000000000,   6.5800000000)


Analysis of symmetry for initial positions (statically):
=====================================================================
 Subroutine PRICEL returns:
 Original cell was already a primitive cell.
 

 Routine SETGRP: Setting up the symmetry group for a 
 simple cubic supercell.


 Subroutine GETGRP returns: Found  1 space group operations
 (whereof  1 operations were pure point group operations)
 out of a pool of 48 trial point group operations.


The static configuration has the point symmetry C_1 .


Analysis of symmetry for dynamics (positions and initial velocities):
=====================================================================
 Subroutine PRICEL returns:
 Original cell was already a primitive cell.
 

 Routine SETGRP: Setting up the symmetry group for a 
 simple cubic supercell.


 Subroutine GETGRP returns: Found  1 space group operations
 (whereof  1 operations were pure point group operations)
 out of a pool of 48 trial point group operations.


The dynamic configuration has the point symmetry C_1 .


 Subroutine INISYM returns: Found  1 space group operations
 (whereof  1 operations are pure point group operations),
 and found     1 'primitive' translations


----------------------------------------------------------------------------------------

                                     Primitive cell                                     

  volume of cell :     284.8903

  direct lattice vectors                    reciprocal lattice vectors
     6.580000000  0.000000000  0.000000000     0.151975684  0.000000000  0.000000000
     0.000000000  6.580000000  0.000000000     0.000000000  0.151975684  0.000000000
     0.000000000  0.000000000  6.580000000     0.000000000  0.000000000  0.151975684

  length of vectors
     6.580000000  6.580000000  6.580000000     0.151975684  0.151975684  0.151975684

  position of ions in fractional coordinates (direct lattice)
     0.000000000  0.500000000  0.500000000
     0.500000000  0.000000000  0.000000000
     0.000000000  0.000000000  0.500000000
     0.250000000  0.250000000  0.750000000
     0.750000000  0.250000000  0.750000000
     0.500000000  0.500000000  0.500000000
     0.000000000  0.500000000  0.000000000
     0.500000000  0.500000000  0.000000000
     0.250000000  0.750000000  0.750000000
     0.250000000  0.250000000  0.250000000
     0.250000000  0.750000000  0.250000000
     0.000000000  0.000000000  0.000000000
     0.750000000  0.750000000  0.250000000
     0.750000000  0.250000000  0.250000000
     0.750000000  0.750000000  0.750000000
     0.500000000  0.000000000  0.500000000

  ion indices of the primitive-cell ions
   primitive index   ion index
                 1           1
                 2           2
                 3           3
                 4           4
                 5           5
                 6           6
                 7           7
                 8           8
                 9           9
                10          10
                11          11
                12          12
                13          13
                14          14
                15          15
                16          16

----------------------------------------------------------------------------------------

 
 
 KPOINTS: K-Spacing Value to Generate K-Mesh: 0.03

Automatic generation of k-mesh.
 Grid dimensions read from file:
 generate k-points for:    5    5    5

 Generating k-lattice:

  Cartesian coordinates                     Fractional coordinates (reciprocal lattice)
     0.030395137  0.000000000  0.000000000     0.200000000  0.000000000  0.000000000
     0.000000000  0.030395137  0.000000000     0.000000000  0.200000000  0.000000000
     0.000000000  0.000000000  0.030395137     0.000000000  0.000000000  0.200000000

  Length of vectors
     0.030395137  0.030395137  0.030395137

  Shift w.r.t. Gamma in fractional coordinates (k-lattice)
     0.000000000  0.000000000  0.000000000

 
 Subroutine IBZKPT returns following result:
 ===========================================
 
 Found     63 irreducible k-points:
 
 Following reciprocal coordinates:
            Coordinates               Weight
  0.000000  0.000000  0.000000      1.000000
  0.200000  0.000000  0.000000      2.000000
  0.000000  0.200000  0.000000      2.000000
  0.000000  0.000000  0.200000      2.000000
  0.400000  0.000000  0.000000      2.000000
  0.000000  0.400000  0.000000      2.000000
  0.000000  0.000000  0.400000      2.000000
  0.200000  0.200000  0.000000      2.000000
  0.000000  0.200000  0.200000      2.000000
  0.200000  0.000000  0.200000      2.000000
 -0.200000  0.200000  0.000000      2.000000
 -0.200000  0.000000  0.200000      2.000000
  0.000000 -0.200000  0.200000      2.000000
  0.400000  0.200000  0.000000      2.000000
  0.000000  0.400000  0.200000      2.000000
  0.200000  0.000000  0.400000      2.000000
 -0.200000  0.400000  0.000000      2.000000
 -0.400000  0.000000  0.200000      2.000000
  0.000000  0.200000  0.400000      2.000000
  0.000000 -0.400000  0.200000      2.000000
 -0.200000  0.000000  0.400000      2.000000
  0.400000  0.000000  0.200000      2.000000
  0.000000 -0.200000  0.400000      2.000000
  0.400000 -0.200000  0.000000      2.000000
  0.200000  0.400000  0.000000      2.000000
  0.400000  0.400000  0.000000      2.000000
  0.000000  0.400000  0.400000      2.000000
  0.400000  0.000000  0.400000      2.000000
 -0.400000  0.400000  0.000000      2.000000
 -0.400000  0.000000  0.400000      2.000000
  0.000000 -0.400000  0.400000      2.000000
  0.200000  0.200000  0.200000      2.000000
 -0.200000  0.200000  0.200000      2.000000
 -0.200000 -0.200000  0.200000      2.000000
  0.200000 -0.200000  0.200000      2.000000
  0.400000  0.200000  0.200000      2.000000
  0.200000  0.400000  0.200000      2.000000
  0.200000  0.200000  0.400000      2.000000
 -0.200000  0.400000  0.200000      2.000000
 -0.400000  0.200000  0.200000      2.000000
 -0.200000  0.200000  0.400000      2.000000
 -0.400000 -0.200000  0.200000      2.000000
 -0.200000 -0.400000  0.200000      2.000000
 -0.200000 -0.200000  0.400000      2.000000
  0.200000 -0.400000  0.200000      2.000000
  0.400000 -0.200000  0.200000      2.000000
  0.200000 -0.200000  0.400000      2.000000
  0.400000  0.400000  0.200000      2.000000
  0.200000  0.400000  0.400000      2.000000
  0.400000  0.200000  0.400000      2.000000
 -0.400000  0.400000  0.200000      2.000000
 -0.400000  0.200000  0.400000      2.000000
 -0.200000  0.400000  0.400000      2.000000
 -0.400000 -0.400000  0.200000      2.000000
 -0.200000 -0.400000  0.400000      2.000000
 -0.400000 -0.200000  0.400000      2.000000
  0.400000 -0.400000  0.200000      2.000000
  0.400000 -0.200000  0.400000      2.000000
  0.200000 -0.400000  0.400000      2.000000
  0.400000  0.400000  0.400000      2.000000
 -0.400000  0.400000  0.400000      2.000000
 -0.400000 -0.400000  0.400000      2.000000
  0.400000 -0.400000  0.400000      2.000000
 
 Following cartesian coordinates:
            Coordinates               Weight
  0.000000  0.000000  0.000000      1.000000
  0.030395  0.000000  0.000000      2.000000
  0.000000  0.030395  0.000000      2.000000
  0.000000  0.000000  0.030395      2.000000
  0.060790  0.000000  0.000000      2.000000
  0.000000  0.060790  0.000000      2.000000
  0.000000  0.000000  0.060790      2.000000
  0.030395  0.030395  0.000000      2.000000
  0.000000  0.030395  0.030395      2.000000
  0.030395  0.000000  0.030395      2.000000
 -0.030395  0.030395  0.000000      2.000000
 -0.030395  0.000000  0.030395      2.000000
  0.000000 -0.030395  0.030395      2.000000
  0.060790  0.030395  0.000000      2.000000
  0.000000  0.060790  0.030395      2.000000
  0.030395  0.000000  0.060790      2.000000
 -0.030395  0.060790  0.000000      2.000000
 -0.060790  0.000000  0.030395      2.000000
  0.000000  0.030395  0.060790      2.000000
  0.000000 -0.060790  0.030395      2.000000
 -0.030395  0.000000  0.060790      2.000000
  0.060790  0.000000  0.030395      2.000000
  0.000000 -0.030395  0.060790      2.000000
  0.060790 -0.030395  0.000000      2.000000
  0.030395  0.060790  0.000000      2.000000
  0.060790  0.060790  0.000000      2.000000
  0.000000  0.060790  0.060790      2.000000
  0.060790  0.000000  0.060790      2.000000
 -0.060790  0.060790  0.000000      2.000000
 -0.060790  0.000000  0.060790      2.000000
  0.000000 -0.060790  0.060790      2.000000
  0.030395  0.030395  0.030395      2.000000
 -0.030395  0.030395  0.030395      2.000000
 -0.030395 -0.030395  0.030395      2.000000
  0.030395 -0.030395  0.030395      2.000000
  0.060790  0.030395  0.030395      2.000000
  0.030395  0.060790  0.030395      2.000000
  0.030395  0.030395  0.060790      2.000000
 -0.030395  0.060790  0.030395      2.000000
 -0.060790  0.030395  0.030395      2.000000
 -0.030395  0.030395  0.060790      2.000000
 -0.060790 -0.030395  0.030395      2.000000
 -0.030395 -0.060790  0.030395      2.000000
 -0.030395 -0.030395  0.060790      2.000000
  0.030395 -0.060790  0.030395      2.000000
  0.060790 -0.030395  0.030395      2.000000
  0.030395 -0.030395  0.060790      2.000000
  0.060790  0.060790  0.030395      2.000000
  0.030395  0.060790  0.060790      2.000000
  0.060790  0.030395  0.060790      2.000000
 -0.060790  0.060790  0.030395      2.000000
 -0.060790  0.030395  0.060790      2.000000
 -0.030395  0.060790  0.060790      2.000000
 -0.060790 -0.060790  0.030395      2.000000
 -0.030395 -0.060790  0.060790      2.000000
 -0.060790 -0.030395  0.060790      2.000000
  0.060790 -0.060790  0.030395      2.000000
  0.060790 -0.030395  0.060790      2.000000
  0.030395 -0.060790  0.060790      2.000000
  0.060790  0.060790  0.060790      2.000000
 -0.060790  0.060790  0.060790      2.000000
 -0.060790 -0.060790  0.060790      2.000000
  0.060790 -0.060790  0.060790      2.000000
 


--------------------------------------------------------------------------------------------------------




 Dimension of arrays:
   k-points           NKPTS =     63   k-points in BZ     NKDIM =     63   number of bands    NBANDS=    128
   number of dos      NEDOS =    301   number of ions     NIONS =     16
   non local maximal  LDIM  =      6   non local SUM 2l+1 LMDIM =     18
   total plane-waves  NPLWV =  46656
   max r-space proj   IRMAX =      1   max aug-charges    IRDMAX=   9546
   dimension x,y,z NGX =    36 NGY =   36 NGZ =   36
   dimension x,y,z NGXF=    72 NGYF=   72 NGZF=   72
   support grid    NGXF=    72 NGYF=   72 NGZF=   72
   ions per type =               6   5   3   2
   NGX,Y,Z   is equivalent  to a cutoff of   9.10,  9.10,  9.10 a.u.
   NGXF,Y,Z  is equivalent  to a cutoff of  18.19, 18.19, 18.19 a.u.

 SYSTEM =  unknown system                          
 POSCAR =  Nb-Mo-Ta-W alloy                        

 Startparameter for this run:
   NWRITE =      2    write-flag & timer
   PREC   = accura    normal or accurate (medium, high low for compatibility)
   ISTART =      0    job   : 0-new  1-cont  2-samecut
   ICHARG =      2    charge: 1-file 2-atom 10-const
   ISPIN  =      1    spin polarized calculation?
   LNONCOLLINEAR =      F non collinear calculations
   LSORBIT =      F    spin-orbit coupling
   INIWAV =      1    electr: 0-lowe 1-rand  2-diag
   LASPH  =      F    aspherical Exc in radial PAW
 Electronic Relaxation 1
   ENCUT  =  250.0 eV  18.37 Ry    4.29 a.u.   8.48  8.48  8.48*2*pi/ulx,y,z
   ENINI  =  250.0     initial cutoff
   ENAUG  =  455.7 eV  augmentation charge cutoff
   NELM   =     80;   NELMIN=  2; NELMDL= -5     # of ELM steps 
   EDIFF  = 0.1E-07   stopping-criterion for ELM
   LREAL  =      F    real-space projection
   NLSPLINE    = F    spline interpolate recip. space projectors
   LCOMPAT=      F    compatible to vasp.4.4
   GGA_COMPAT  = T    GGA compatible to vasp.4.4-vasp.4.6
   LMAXPAW     = -100 max onsite density
   LMAXMIX     =    2 max onsite mixed and CHGCAR
   VOSKOWN=      0    Vosko Wilk Nusair interpolation
   ROPT   =    0.00000   0.00000   0.00000   0.00000
 Ionic relaxation
   EDIFFG = -.1E-01   stopping-criterion for IOM
   NSW    =      0    number of steps for IOM
   NBLOCK =      1;   KBLOCK =      1    inner block; outer block 
   IBRION =     -1    ionic relax: 0-MD 1-quasi-New 2-CG
   NFREE  =      0    steps in history (QN), initial steepest desc. (CG)
   ISIF   =      2    stress and relaxation
   IWAVPR =     10    prediction:  0-non 1-charg 2-wave 3-comb
   ISYM   =      2    0-nonsym 1-usesym 2-fastsym
   LCORR  =      T    Harris-Foulkes like correction to forces

   POTIM  = 0.5000    time-step for ionic-motion
   TEIN   =    0.0    initial temperature
   TEBEG  =    0.0;   TEEND  =   0.0 temperature during run
   SMASS  =  -3.00    Nose mass-parameter (am)
   estimated Nose-frequenzy (Omega)   =  0.10E-29 period in steps = 0.13E+47 mass=  -0.989E-27a.u.
   SCALEE = 1.0000    scale energy and forces
   NPACO  =    256;   APACO  = 10.0  distance and # of slots for P.C.
   PSTRESS=    0.0 pullay stress

  Mass of Ions in am
   POMASS =  92.91 95.94180.95183.85
  Ionic Valenz
   ZVAL   =  13.00 14.00 11.00 14.00
  Atomic Wigner-Seitz radii
   RWIGS  =  -1.00 -1.00 -1.00 -1.00
  virtual crystal weights 
   VCA    =   1.00  1.00  1.00  1.00
   NELECT =     209.0000    total number of electrons
   NUPDOWN=      -1.0000    fix difference up-down

 DOS related values:
   EMIN   =  10.00;   EMAX   =-10.00  energy-range for DOS
   EFERMI =   0.00
   ISMEAR =     0;   SIGMA  =   0.02  broadening in eV -4-tet -1-fermi 0-gaus

 Electronic relaxation 2 (details)
   IALGO  =     38    algorithm
   LDIAG  =      T    sub-space diagonalisation (order eigenvalues)
   LSUBROT=      F    optimize rotation matrix (better conditioning)
   TURBO    =      0    0=normal 1=particle mesh
   IRESTART =      0    0=no restart 2=restart with 2 vectors
   NREBOOT  =      0    no. of reboots
   NMIN     =      0    reboot dimension
   EREF     =   0.00    reference energy to select bands
   IMIX   =      4    mixing-type and parameters
     AMIX     =   0.40;   BMIX     =  1.00
     AMIX_MAG =   1.60;   BMIX_MAG =  1.00
     AMIN     =   0.10
     WC   =   100.;   INIMIX=   1;  MIXPRE=   1;  MAXMIX= -45

 Intra band minimization:
   WEIMIN = 0.0000     energy-eigenvalue tresh-hold
   EBREAK =  0.20E-10  absolut break condition
   DEPER  =   0.30     relativ break condition  

   TIME   =   0.40     timestep for ELM

  volume/ion in A,a.u.               =      17.81       120.16
  Fermi-wavevector in a.u.,A,eV,Ry     =   1.476492  2.790165 29.661081  2.180028
  Thomas-Fermi vector in A             =   2.591012
 
 Write flags
   LWAVE        =      F    write WAVECAR
   LDOWNSAMPLE  =      F    k-point downsampling of WAVECAR
   LCHARG       =      F    write CHGCAR
   LVTOT        =      F    write LOCPOT, total local potential
   LVHAR        =      F    write LOCPOT, Hartree potential only
   LELF         =      F    write electronic localiz. function (ELF)
   LORBIT       =      0    0 simple, 1 ext, 2 COOP (PROOUT), +10 PAW based schemes


 Dipole corrections
   LMONO  =      F    monopole corrections only (constant potential shift)
   LDIPOL =      F    correct potential (dipole corrections)
   IDIPOL =      0    1-x, 2-y, 3-z, 4-all directions 
   EPSILON=  1.0000000 bulk dielectric constant

 Core level calculations are selected ICORELEVEL =  1
 Exchange correlation treatment:
   GGA     =    PE    GGA type
   LEXCH   =     8    internal setting for exchange type
   LIBXC   =     F    Libxc                    
   VOSKOWN =     0    Vosko Wilk Nusair interpolation
   LHFCALC =     F    Hartree Fock is set to
   LHFONE  =     F    Hartree Fock one center treatment
   AEXX    =    0.0000 exact exchange contribution

 Linear response parameters
   LEPSILON=     F    determine dielectric tensor
   LRPA    =     F    only Hartree local field effects (RPA)
   LNABLA  =     F    use nabla operator in PAW spheres
   LVEL    =     F    velocity operator in full k-point grid
   CSHIFT  =0.1000    complex shift for real part using Kramers Kronig
   OMEGAMAX=  -1.0    maximum frequency
   DEG_THRESHOLD= 0.2000000E-02 threshold for treating states as degnerate
   RTIME   =   -0.100 relaxation time in fs
  (WPLASMAI=    0.000 imaginary part of plasma frequency in eV, 0.658/RTIME)
   DFIELD  = 0.0000000 0.0000000 0.0000000 field for delta impulse in time
 
  Optional k-point grid parameters
   LKPOINTS_OPT  =     F    use optional k-point grid
   KPOINTS_OPT_MODE=     1    mode for optional k-point grid
 
 Orbital magnetization related:
   ORBITALMAG=     F  switch on orbital magnetization
   LCHIMAG   =     F  perturbation theory with respect to B field
   DQ        =  0.001000  dq finite difference perturbation B field
   LLRAUG    =     F  two centre corrections for induced B field



--------------------------------------------------------------------------------------------------------


 Static calculation
 charge density and potential will be updated during run
 non-spin polarized calculation
 Variant of blocked Davidson
 Davidson routine will perform the subspace rotation
 perform sub-space diagonalisation
    after iterative eigenvector-optimisation
 modified Broyden-mixing scheme, WC =      100.0
 initial mixing is a Kerker type mixing with AMIX =  0.4000 and BMIX =      1.0000
 Hartree-type preconditioning will be used
 using additional bands           23
 reciprocal scheme for non local part
 use partial core corrections
 calculate Harris-corrections to forces 
   (improved forces if not selfconsistent)
 use gradient corrections 
 use of overlap-Matrix (Vanderbilt PP)
 Gauss-broadening in eV      SIGMA  =   0.02


--------------------------------------------------------------------------------------------------------


  energy-cutoff  :      250.00
  volume of cell :      284.89
      direct lattice vectors                 reciprocal lattice vectors
     6.580000000  0.000000000  0.000000000     0.151975684  0.000000000  0.000000000
     0.000000000  6.580000000  0.000000000     0.000000000  0.151975684  0.000000000
     0.000000000  0.000000000  6.580000000     0.000000000  0.000000000  0.151975684

  length of vectors
     6.580000000  6.580000000  6.580000000     0.151975684  0.151975684  0.151975684


 
 k-points in units of 2pi/SCALE and weight: K-Spacing Value to Generate K-Mesh: 0.03
   0.00000000  0.00000000  0.00000000       0.008
   0.03039514  0.00000000  0.00000000       0.016
   0.00000000  0.03039514  0.00000000       0.016
   0.00000000  0.00000000  0.03039514       0.016
   0.06079027  0.00000000  0.00000000       0.016
   0.00000000  0.06079027  0.00000000       0.016
   0.00000000  0.00000000  0.06079027       0.016
   0.03039514  0.03039514  0.00000000       0.016
   0.00000000  0.03039514  0.03039514       0.016
   0.03039514  0.00000000  0.03039514       0.016
  -0.03039514  0.03039514  0.00000000       0.016
  -0.03039514  0.00000000  0.03039514       0.016
   0.00000000 -0.03039514  0.03039514       0.016
   0.06079027  0.03039514  0.00000000       0.016
   0.00000000  0.06079027  0.03039514       0.016
   0.03039514  0.00000000  0.06079027       0.016
  -0.03039514  0.06079027  0.00000000       0.016
  -0.06079027  0.00000000  0.03039514       0.016
   0.00000000  0.03039514  0.06079027       0.016
   0.00000000 -0.06079027  0.03039514       0.016
  -0.03039514  0.00000000  0.06079027       0.016
   0.06079027  0.00000000  0.03039514       0.016
   0.00000000 -0.03039514  0.06079027       0.016
   0.06079027 -0.03039514  0.00000000       0.016
   0.03039514  0.06079027  0.00000000       0.016
   0.06079027  0.06079027  0.00000000       0.016
   0.00000000  0.06079027  0.06079027       0.016
   0.06079027  0.00000000  0.06079027       0.016
  -0.06079027  0.06079027  0.00000000       0.016
  -0.06079027  0.00000000  0.06079027       0.016
   0.00000000 -0.06079027  0.06079027       0.016
   0.03039514  0.03039514  0.03039514       0.016
  -0.03039514  0.03039514  0.03039514       0.016
  -0.03039514 -0.03039514  0.03039514       0.016
   0.03039514 -0.03039514  0.03039514       0.016
   0.06079027  0.03039514  0.03039514       0.016
   0.03039514  0.06079027  0.03039514       0.016
   0.03039514  0.03039514  0.06079027       0.016
  -0.03039514  0.06079027  0.03039514       0.016
  -0.06079027  0.03039514  0.03039514       0.016
  -0.03039514  0.03039514  0.06079027       0.016
  -0.06079027 -0.03039514  0.03039514       0.016
  -0.03039514 -0.06079027  0.03039514       0.016
  -0.03039514 -0.03039514  0.06079027       0.016
   0.03039514 -0.06079027  0.03039514       0.016
   0.06079027 -0.03039514  0.03039514       0.016
   0.03039514 -0.03039514  0.06079027       0.016
   0.06079027  0.06079027  0.03039514       0.016
   0.03039514  0.06079027  0.06079027       0.016
   0.06079027  0.03039514  0.06079027       0.016
  -0.06079027  0.06079027  0.03039514       0.016
  -0.06079027  0.03039514  0.06079027       0.016
  -0.03039514  0.06079027  0.06079027       0.016
  -0.06079027 -0.06079027  0.03039514       0.016
  -0.03039514 -0.06079027  0.06079027       0.016
  -0.06079027 -0.03039514  0.06079027       0.016
   0.06079027 -0.06079027  0.03039514       0.016
   0.06079027 -0.03039514  0.06079027       0.016
   0.03039514 -0.06079027  0.06079027       0.016
   0.06079027  0.06079027  0.06079027       0.016
  -0.06079027  0.06079027  0.06079027       0.016
  -0.06079027 -0.06079027  0.06079027       0.016
   0.06079027 -0.06079027  0.06079027       0.016
 
 k-points in reciprocal lattice and weights: K-Spacing Value to Generate K-Mesh: 0.03
   0.00000000  0.00000000  0.00000000       0.008
   0.20000000  0.00000000  0.00000000       0.016
   0.00000000  0.20000000  0.00000000       0.016
   0.00000000  0.00000000  0.20000000       0.016
   0.40000000  0.00000000  0.00000000       0.016
   0.00000000  0.40000000  0.00000000       0.016
   0.00000000  0.00000000  0.40000000       0.016
   0.20000000  0.20000000  0.00000000       0.016
   0.00000000  0.20000000  0.20000000       0.016
   0.20000000  0.00000000  0.20000000       0.016
  -0.20000000  0.20000000  0.00000000       0.016
  -0.20000000  0.00000000  0.20000000       0.016
   0.00000000 -0.20000000  0.20000000       0.016
   0.40000000  0.20000000  0.00000000       0.016
   0.00000000  0.40000000  0.20000000       0.016
   0.20000000  0.00000000  0.40000000       0.016
  -0.20000000  0.40000000  0.00000000       0.016
  -0.40000000  0.00000000  0.20000000       0.016
   0.00000000  0.20000000  0.40000000       0.016
   0.00000000 -0.40000000  0.20000000       0.016
  -0.20000000  0.00000000  0.40000000       0.016
   0.40000000  0.00000000  0.20000000       0.016
   0.00000000 -0.20000000  0.40000000       0.016
   0.40000000 -0.20000000  0.00000000       0.016
   0.20000000  0.40000000  0.00000000       0.016
   0.40000000  0.40000000  0.00000000       0.016
   0.00000000  0.40000000  0.40000000       0.016
   0.40000000  0.00000000  0.40000000       0.016
  -0.40000000  0.40000000  0.00000000       0.016
  -0.40000000  0.00000000  0.40000000       0.016
   0.00000000 -0.40000000  0.40000000       0.016
   0.20000000  0.20000000  0.20000000       0.016
  -0.20000000  0.20000000  0.20000000       0.016
  -0.20000000 -0.20000000  0.20000000       0.016
   0.20000000 -0.20000000  0.20000000       0.016
   0.40000000  0.20000000  0.20000000       0.016
   0.20000000  0.40000000  0.20000000       0.016
   0.20000000  0.20000000  0.40000000       0.016
  -0.20000000  0.40000000  0.20000000       0.016
  -0.40000000  0.20000000  0.20000000       0.016
  -0.20000000  0.20000000  0.40000000       0.016
  -0.40000000 -0.20000000  0.20000000       0.016
  -0.20000000 -0.40000000  0.20000000       0.016
  -0.20000000 -0.20000000  0.40000000       0.016
   0.20000000 -0.40000000  0.20000000       0.016
   0.40000000 -0.20000000  0.20000000       0.016
   0.20000000 -0.20000000  0.40000000       0.016
   0.40000000  0.40000000  0.20000000       0.016
   0.20000000  0.40000000  0.40000000       0.016
   0.40000000  0.20000000  0.40000000       0.016
  -0.40000000  0.40000000  0.20000000       0.016
  -0.40000000  0.20000000  0.40000000       0.016
  -0.20000000  0.40000000  0.40000000       0.016
  -0.40000000 -0.40000000  0.20000000       0.016
  -0.20000000 -0.40000000  0.40000000       0.016
  -0.40000000 -0.20000000  0.40000000       0.016
   0.40000000 -0.40000000  0.20000000       0.016
   0.40000000 -0.20000000  0.40000000       0.016
   0.20000000 -0.40000000  0.40000000       0.016
   0.40000000  0.40000000  0.40000000       0.016
  -0.40000000  0.40000000  0.40000000       0.016
  -0.40000000 -0.40000000  0.40000000       0.016
   0.40000000 -0.40000000  0.40000000       0.016
 
 position of ions in fractional coordinates (direct lattice) 
   0.00000000  0.50000000  0.50000000
   0.50000000  0.00000000  0.00000000
   0.00000000  0.00000000  0.50000000
   0.25000000  0.25000000  0.75000000
   0.75000000  0.25000000  0.75000000
   0.50000000  0.50000000  0.50000000
   0.00000000  0.50000000  0.00000000
   0.50000000  0.50000000  0.00000000
   0.25000000  0.75000000  0.75000000
   0.25000000  0.25000000  0.25000000
   0.25000000  0.75000000  0.25000000
   0.00000000  0.00000000  0.00000000
   0.75000000  0.75000000  0.25000000
   0.75000000  0.25000000  0.25000000
   0.75000000  0.75000000  0.75000000
   0.50000000  0.00000000  0.50000000
 
 position of ions in cartesian coordinates  (Angst):
   0.00000000  3.29000000  3.29000000
   3.29000000  0.00000000  0.00000000
   0.00000000  0.00000000  3.29000000
   1.64500000  1.64500000  4.93500000
   4.93500000  1.64500000  4.93500000
   3.29000000  3.29000000  3.29000000
   0.00000000  3.29000000  0.00000000
   3.29000000  3.29000000  0.00000000
   1.64500000  4.93500000  4.93500000
   1.64500000  1.64500000  1.64500000
   1.64500000  4.93500000  1.64500000
   0.00000000  0.00000000  0.00000000
   4.93500000  4.93500000  1.64500000
   4.93500000  1.64500000  1.64500000
   4.93500000  4.93500000  4.93500000
   3.29000000  0.00000000  3.29000000
 


--------------------------------------------------------------------------------------------------------


 k-point   1 :   0.0000 0.0000 0.0000  plane waves:    2517
 k-point   2 :   0.2000 0.0000 0.0000  plane waves:    2545
 k-point   3 :   0.0000 0.2000 0.0000  plane waves:    2545
 k-point   4 :   0.0000 0.0000 0.2000  plane waves:    2545
 k-point   5 :   0.4000 0.0000 0.0000  plane waves:    2569
 k-point   6 :   0.0000 0.4000 0.0000  plane waves:    2569
 k-point   7 :   0.0000 0.0000 0.4000  plane waves:    2569
 k-point   8 :   0.2000 0.2000 0.0000  plane waves:    2562
 k-point   9 :   0.0000 0.2000 0.2000  plane waves:    2562
 k-point  10 :   0.2000 0.0000 0.2000  plane waves:    2562
 k-point  11 :  -0.2000 0.2000 0.0000  plane waves:    2562
 k-point  12 :  -0.2000 0.0000 0.2000  plane waves:    2562
 k-point  13 :   0.0000-0.2000 0.2000  plane waves:    2562
 k-point  14 :   0.4000 0.2000 0.0000  plane waves:    2566
 k-point  15 :   0.0000 0.4000 0.2000  plane waves:    2566
 k-point  16 :   0.2000 0.0000 0.4000  plane waves:    2566
 k-point  17 :  -0.2000 0.4000 0.0000  plane waves:    2566
 k-point  18 :  -0.4000 0.0000 0.2000  plane waves:    2566
 k-point  19 :   0.0000 0.2000 0.4000  plane waves:    2566
 k-point  20 :   0.0000-0.4000 0.2000  plane waves:    2566
 k-point  21 :  -0.2000 0.0000 0.4000  plane waves:    2566
 k-point  22 :   0.4000 0.0000 0.2000  plane waves:    2566
 k-point  23 :   0.0000-0.2000 0.4000  plane waves:    2566
 k-point  24 :   0.4000-0.2000 0.0000  plane waves:    2566
 k-point  25 :   0.2000 0.4000 0.0000  plane waves:    2566
 k-point  26 :   0.4000 0.4000 0.0000  plane waves:    2570
 k-point  27 :   0.0000 0.4000 0.4000  plane waves:    2570
 k-point  28 :   0.4000 0.0000 0.4000  plane waves:    2570
 k-point  29 :  -0.4000 0.4000 0.0000  plane waves:    2570
 k-point  30 :  -0.4000 0.0000 0.4000  plane waves:    2570
 k-point  31 :   0.0000-0.4000 0.4000  plane waves:    2570
 k-point  32 :   0.2000 0.2000 0.2000  plane waves:    2572
 k-point  33 :  -0.2000 0.2000 0.2000  plane waves:    2572
 k-point  34 :  -0.2000-0.2000 0.2000  plane waves:    2572
 k-point  35 :   0.2000-0.2000 0.2000  plane waves:    2572
 k-point  36 :   0.4000 0.2000 0.2000  plane waves:    2546
 k-point  37 :   0.2000 0.4000 0.2000  plane waves:    2546
 k-point  38 :   0.2000 0.2000 0.4000  plane waves:    2546
 k-point  39 :  -0.2000 0.4000 0.2000  plane waves:    2546
 k-point  40 :  -0.4000 0.2000 0.2000  plane waves:    2546
 k-point  41 :  -0.2000 0.2000 0.4000  plane waves:    2546
 k-point  42 :  -0.4000-0.2000 0.2000  plane waves:    2546
 k-point  43 :  -0.2000-0.4000 0.2000  plane waves:    2546
 k-point  44 :  -0.2000-0.2000 0.4000  plane waves:    2546
 k-point  45 :   0.2000-0.4000 0.2000  plane waves:    2546
 k-point  46 :   0.4000-0.2000 0.2000  plane waves:    2546
 k-point  47 :   0.2000-0.2000 0.4000  plane waves:    2546
 k-point  48 :   0.4000 0.4000 0.2000  plane waves:    2549
 k-point  49 :   0.2000 0.4000 0.4000  plane waves:    2549
 k-point  50 :   0.4000 0.2000 0.4000  plane waves:    2549
 k-point  51 :  -0.4000 0.4000 0.2000  plane waves:    2549
 k-point  52 :  -0.4000 0.2000 0.4000  plane waves:    2549
 k-point  53 :  -0.2000 0.4000 0.4000  plane waves:    2549
 k-point  54 :  -0.4000-0.4000 0.2000  plane waves:    2549
 k-point  55 :  -0.2000-0.4000 0.4000  plane waves:    2549
 k-point  56 :  -0.4000-0.2000 0.4000  plane waves:    2549
 k-point  57 :   0.4000-0.4000 0.2000  plane waves:    2549
 k-point  58 :   0.4000-0.2000 0.4000  plane waves:    2549
 k-point  59 :   0.2000-0.4000 0.4000  plane waves:    2549
 k-point  60 :   0.4000 0.4000 0.4000  plane waves:    2533
 k-point  61 :  -0.4000 0.4000 0.4000  plane waves:    2533
 k-point  62 :  -0.4000-0.4000 0.4000  plane waves:    2533
 k-point  63 :   0.4000-0.4000 0.4000  plane waves:    2533

 maximum and minimum number of plane-waves per node :       235      194

 maximum number of plane-waves:      2572
 maximum index in each direction: 
   IXMAX=    8   IYMAX=    8   IZMAX=    8
   IXMIN=   -8   IYMIN=   -8   IZMIN=   -8


 parallel 3D FFT for wavefunctions:
    minimum data exchange during FFTs selected (reduces bandwidth)
 parallel 3D FFT for charge:
    minimum data exchange during FFTs selected (reduces bandwidth)


 total amount of memory used by VASP MPI-rank0    48253. kBytes
=======================================================================

   base      :      30000. kBytes
   nonl-proj :       8332. kBytes
   fftplans  :        456. kBytes
   grid      :        919. kBytes
   one-center:         31. kBytes
   wavefun   :       8515. kBytes
 
     INWAV:  cpu time      0.0000: real time      0.0001
 Broyden mixing: mesh for mixing (old mesh)
   NGX = 17   NGY = 17   NGZ = 17
  (NGX  = 72   NGY  = 72   NGZ  = 72)
  gives a total of   4913 points

 initial charge density was supplied:
 charge density of overlapping atoms calculated
 number of electron     209.0000000 magnetization 
 keeping initial charge density in first step


--------------------------------------------------------------------------------------------------------


 Maximum index for augmentation-charges          517 (set IRDMAX)


--------------------------------------------------------------------------------------------------------


 First call to EWALD:  gamma=   0.269
 Maximum number of real-space cells 3x 3x 3
 Maximum number of reciprocal cells 3x 3x 3

    FEWALD:  cpu time      0.0020: real time      0.0020


--------------------------------------- Iteration      1(   1)  ---------------------------------------


    POTLOK:  cpu time      0.0318: real time      0.0623
    SETDIJ:  cpu time      0.0025: real time      0.0026
     EDDAV:  cpu time      3.2823: real time      3.3084
       DOS:  cpu time      0.0048: real time      0.0048
    --------------------------------------------
      LOOP:  cpu time      3.3214: real time      3.3781

 eigenvalue-minimisations  : 16928
 total energy-change (2. order) : 0.1866558E+04  (-0.8264838E+04)
 number of electron     209.0000000 magnetization 
 augmentation part      209.0000000 magnetization 

 Free energy of the ion-electron system (eV)
  ---------------------------------------------------
  alpha Z        PSCENC =      1697.23846580
  Ewald energy   TEWEN  =    -21789.67884665
  -Hartree energ DENC   =     -4141.19608649
  -exchange      EXHF   =         0.00000000
  -V(xc)+E(xc)   XCENC  =       858.30745368
  PAW double counting   =     20281.65173483   -19980.27757680
  entropy T*S    EENTRO =        -0.00142470
  eigenvalues    EBANDS =      -572.73920094
  atomic energy  EATOM  =     25513.25376244
  Solvation  Ediel_sol  =         0.00000000
  ---------------------------------------------------
  free energy    TOTEN  =      1866.55828118 eV

  energy without entropy =     1866.55970588  energy(sigma->0) =     1866.55899353


--------------------------------------------------------------------------------------------------------




--------------------------------------- Iteration      1(   2)  ---------------------------------------


     EDDAV:  cpu time      3.2323: real time      3.2460
       DOS:  cpu time      0.0051: real time      0.0051
    --------------------------------------------
      LOOP:  cpu time      3.2374: real time      3.2511

 eigenvalue-minimisations  : 16928
 total energy-change (2. order) :-0.1884096E+04  (-0.1818531E+04)
 number of electron     209.0000000 magnetization 
 augmentation part      209.0000000 magnetization 

 Free energy of the ion-electron system (eV)
  ---------------------------------------------------
  alpha Z        PSCENC =      1697.23846580
  Ewald energy   TEWEN  =    -21789.67884665
  -Hartree energ DENC   =     -4141.19608649
  -exchange      EXHF   =         0.00000000
  -V(xc)+E(xc)   XCENC  =       858.30745368
  PAW double counting   =     20281.65173483   -19980.27757680
  entropy T*S    EENTRO =        -0.00221634
  eigenvalues    EBANDS =     -2456.83449501
  atomic energy  EATOM  =     25513.25376244
  Solvation  Ediel_sol  =         0.00000000
  ---------------------------------------------------
  free energy    TOTEN  =       -17.53780454 eV

  energy without entropy =      -17.53558820  energy(sigma->0) =      -17.53669637


--------------------------------------------------------------------------------------------------------




--------------------------------------- Iteration      1(   3)  ---------------------------------------


     EDDAV:  cpu time      4.5251: real time      4.5436
       DOS:  cpu time      0.0045: real time      0.0045
    --------------------------------------------
      LOOP:  cpu time      4.5296: real time      4.5481

 eigenvalue-minimisations  : 25944
 total energy-change (2. order) :-0.1588304E+03  (-0.1503462E+03)
 number of electron     209.0000000 magnetization 
 augmentation part      209.0000000 magnetization 

 Free energy of the ion-electron system (eV)
  ---------------------------------------------------
  alpha Z        PSCENC =      1697.23846580
  Ewald energy   TEWEN  =    -21789.67884665
  -Hartree energ DENC   =     -4141.19608649
  -exchange      EXHF   =         0.00000000
  -V(xc)+E(xc)   XCENC  =       858.30745368
  PAW double counting   =     20281.65173483   -19980.27757680
  entropy T*S    EENTRO =        -0.00269344
  eigenvalues    EBANDS =     -2615.66440416
  atomic energy  EATOM  =     25513.25376244
  Solvation  Ediel_sol  =         0.00000000
  ---------------------------------------------------
  free energy    TOTEN  =      -176.36819078 eV

  energy without entropy =     -176.36549734  energy(sigma->0) =     -176.36684406


--------------------------------------------------------------------------------------------------------




--------------------------------------- Iteration      1(   4)  ---------------------------------------


     EDDAV:  cpu time      4.3896: real time      4.4076
       DOS:  cpu time      0.0052: real time      0.0052
    --------------------------------------------
      LOOP:  cpu time      4.3948: real time      4.4129

 eigenvalue-minimisations  : 25400
 total energy-change (2. order) :-0.1042433E+02  (-0.1018157E+02)
 number of electron     209.0000000 magnetization 
 augmentation part      209.0000000 magnetization 

 Free energy of the ion-electron system (eV)
  ---------------------------------------------------
  alpha Z        PSCENC =      1697.23846580
  Ewald energy   TEWEN  =    -21789.67884665
  -Hartree energ DENC   =     -4141.19608649
  -exchange      EXHF   =         0.00000000
  -V(xc)+E(xc)   XCENC  =       858.30745368
  PAW double counting   =     20281.65173483   -19980.27757680
  entropy T*S    EENTRO =        -0.00429718
  eigenvalues    EBANDS =     -2626.08712900
  atomic energy  EATOM  =     25513.25376244
  Solvation  Ediel_sol  =         0.00000000
  ---------------------------------------------------
  free energy    TOTEN  =      -186.79251936 eV

  energy without entropy =     -186.78822218  energy(sigma->0) =     -186.79037077


--------------------------------------------------------------------------------------------------------




--------------------------------------- Iteration      1(   5)  ---------------------------------------


     EDDAV:  cpu time      4.2977: real time      4.4730
       DOS:  cpu time      0.0050: real time      0.0050
    CHARGE:  cpu time      0.0878: real time      0.0881
    MIXING:  cpu time      0.0003: real time      0.0003
    --------------------------------------------
      LOOP:  cpu time      4.3907: real time      4.5664

 eigenvalue-minimisations  : 24728
 total energy-change (2. order) :-0.5844514E+00  (-0.5803331E+00)
 number of electron     208.9999786 magnetization 
 augmentation part       36.3870617 magnetization 

 Broyden mixing:
  rms(total) = 0.48185E+01    rms(broyden)= 0.48172E+01
  rms(prec ) = 0.53909E+01
  weight for this iteration     100.00

 Free energy of the ion-electron system (eV)
  ---------------------------------------------------
  alpha Z        PSCENC =      1697.23846580
  Ewald energy   TEWEN  =    -21789.67884665
  -Hartree energ DENC   =     -4141.19608649
  -exchange      EXHF   =         0.00000000
  -V(xc)+E(xc)   XCENC  =       858.30745368
  PAW double counting   =     20281.65173483   -19980.27757680
  entropy T*S    EENTRO =        -0.00425218
  eigenvalues    EBANDS =     -2626.67162538
  atomic energy  EATOM  =     25513.25376244
  Solvation  Ediel_sol  =         0.00000000
  ---------------------------------------------------
  free energy    TOTEN  =      -187.37697075 eV

  energy without entropy =     -187.37271857  energy(sigma->0) =     -187.37484466


--------------------------------------------------------------------------------------------------------




--------------------------------------- Iteration      1(   6)  ---------------------------------------


    POTLOK:  cpu time      0.0047: real time      0.0048
    SETDIJ:  cpu time      0.0018: real time      0.0018
     EDDAV:  cpu time      3.5422: real time      3.5567
       DOS:  cpu time      0.0049: real time      0.0049
    CHARGE:  cpu time      0.0855: real time      0.0858
    MIXING:  cpu time      0.0003: real time      0.0003
    --------------------------------------------
      LOOP:  cpu time      3.6393: real time      3.6544

 eigenvalue-minimisations  : 18872
 total energy-change (2. order) : 0.7207276E+01  (-0.2216901E+01)
 number of electron     208.9999770 magnetization 
 augmentation part       38.2410157 magnetization 

 Broyden mixing:
  rms(total) = 0.17535E+01    rms(broyden)= 0.17531E+01
  rms(prec ) = 0.23588E+01
  weight for this iteration     100.00

 eigenvalues of (default mixing * dielectric matrix)
  average eigenvalue GAMMA=   1.3579
  1.3579

 Free energy of the ion-electron system (eV)
  ---------------------------------------------------
  alpha Z        PSCENC =      1697.23846580
  Ewald energy   TEWEN  =    -21789.67884665
  -Hartree energ DENC   =     -3916.11752692
  -exchange      EXHF   =         0.00000000
  -V(xc)+E(xc)   XCENC  =       847.03953870
  PAW double counting   =     23375.47191259   -23097.22926025
  entropy T*S    EENTRO =        -0.00393476
  eigenvalues    EBANDS =     -2810.14380568
  atomic energy  EATOM  =     25513.25376244
  Solvation  Ediel_sol  =         0.00000000
  ---------------------------------------------------
  free energy    TOTEN  =      -180.16969473 eV

  energy without entropy =     -180.16575997  energy(sigma->0) =     -180.16772735


--------------------------------------------------------------------------------------------------------




--------------------------------------- Iteration      1(   7)  ---------------------------------------


    POTLOK:  cpu time      0.0047: real time      0.0048
    SETDIJ:  cpu time      0.0017: real time      0.0017
     EDDAV:  cpu time      4.3070: real time      4.3247
       DOS:  cpu time      0.0049: real time      0.0049
    CHARGE:  cpu time      0.0855: real time      0.0858
    MIXING:  cpu time      0.0003: real time      0.0003
    --------------------------------------------
      LOOP:  cpu time      4.4040: real time      4.4222

 eigenvalue-minimisations  : 24600
 total energy-change (2. order) :-0.5077041E+00  (-0.1682135E+01)
 number of electron     208.9999781 magnetization 
 augmentation part       37.7267353 magnetization 

 Broyden mixing:
  rms(total) = 0.11903E+01    rms(broyden)= 0.11900E+01
  rms(prec ) = 0.27579E+01
  weight for this iteration     100.00

 eigenvalues of (default mixing * dielectric matrix)
  average eigenvalue GAMMA=   1.0493
  1.5756  0.5230

 Free energy of the ion-electron system (eV)
  ---------------------------------------------------
  alpha Z        PSCENC =      1697.23846580
  Ewald energy   TEWEN  =    -21789.67884665
  -Hartree energ DENC   =     -3864.79640877
  -exchange      EXHF   =         0.00000000
  -V(xc)+E(xc)   XCENC  =       843.85420387
  PAW double counting   =     25085.57807748   -24812.17892064
  entropy T*S    EENTRO =        -0.00247911
  eigenvalues    EBANDS =     -2853.94525319
  atomic energy  EATOM  =     25513.25376244
  Solvation  Ediel_sol  =         0.00000000
  ---------------------------------------------------
  free energy    TOTEN  =      -180.67739878 eV

  energy without entropy =     -180.67491967  energy(sigma->0) =     -180.67615922


--------------------------------------------------------------------------------------------------------




--------------------------------------- Iteration      1(   8)  ---------------------------------------


    POTLOK:  cpu time      0.0047: real time      0.0048
    SETDIJ:  cpu time      0.0017: real time      0.0017
     EDDAV:  cpu time      3.7569: real time      3.7719
       DOS:  cpu time      0.0048: real time      0.0049
    CHARGE:  cpu time      0.0854: real time      0.0857
    MIXING:  cpu time      0.0003: real time      0.0003
    --------------------------------------------
      LOOP:  cpu time      3.8539: real time      3.8693

 eigenvalue-minimisations  : 20792
 total energy-change (2. order) : 0.2548930E+01  (-0.9042787E+00)
 number of electron     208.9999775 magnetization 
 augmentation part       38.3437760 magnetization 

 Broyden mixing:
  rms(total) = 0.41413E+00    rms(broyden)= 0.41338E+00
  rms(prec ) = 0.63519E+00
  weight for this iteration     100.00

 eigenvalues of (default mixing * dielectric matrix)
  average eigenvalue GAMMA=   1.0356
  1.6462  1.0633  0.3973

 Free energy of the ion-electron system (eV)
  ---------------------------------------------------
  alpha Z        PSCENC =      1697.23846580
  Ewald energy   TEWEN  =    -21789.67884665
  -Hartree energ DENC   =     -3817.64329148
  -exchange      EXHF   =         0.00000000
  -V(xc)+E(xc)   XCENC  =       841.72270703
  PAW double counting   =     25874.52129999   -25605.50196537
  entropy T*S    EENTRO =        -0.00292232
  eigenvalues    EBANDS =     -2892.03767831
  atomic energy  EATOM  =     25513.25376244
  Solvation  Ediel_sol  =         0.00000000
  ---------------------------------------------------
  free energy    TOTEN  =      -178.12846887 eV

  energy without entropy =     -178.12554655  energy(sigma->0) =     -178.12700771


--------------------------------------------------------------------------------------------------------




--------------------------------------- Iteration      1(   9)  ---------------------------------------


    POTLOK:  cpu time      0.0047: real time      0.0048
    SETDIJ:  cpu time      0.0017: real time      0.0017
     EDDAV:  cpu time      3.9244: real time      3.9402
       DOS:  cpu time      0.0050: real time      0.0050
    CHARGE:  cpu time      0.0850: real time      0.0853
    MIXING:  cpu time      0.0003: real time      0.0003
    --------------------------------------------
      LOOP:  cpu time      4.0211: real time      4.0373

 eigenvalue-minimisations  : 22016
 total energy-change (2. order) :-0.1341242E-01  (-0.1450568E+00)
 number of electron     208.9999776 magnetization 
 augmentation part       38.3694870 magnetization 

 Broyden mixing:
  rms(total) = 0.30866E+00    rms(broyden)= 0.30858E+00
  rms(prec ) = 0.42219E+00
  weight for this iteration     100.00

 eigenvalues of (default mixing * dielectric matrix)
  average eigenvalue GAMMA=   1.1533
  2.0768  1.5978  0.5644  0.3741

 Free energy of the ion-electron system (eV)
  ---------------------------------------------------
  alpha Z        PSCENC =      1697.23846580
  Ewald energy   TEWEN  =    -21789.67884665
  -Hartree energ DENC   =     -3813.62007797
  -exchange      EXHF   =         0.00000000
  -V(xc)+E(xc)   XCENC  =       841.53860502
  PAW double counting   =     26101.57905736   -25831.44141044
  entropy T*S    EENTRO =        -0.00245202
  eigenvalues    EBANDS =     -2897.00898482
  atomic energy  EATOM  =     25513.25376244
  Solvation  Ediel_sol  =         0.00000000
  ---------------------------------------------------
  free energy    TOTEN  =      -178.14188128 eV

  energy without entropy =     -178.13942926  energy(sigma->0) =     -178.14065527


--------------------------------------------------------------------------------------------------------




--------------------------------------- Iteration      1(  10)  ---------------------------------------


    POTLOK:  cpu time      0.0046: real time      0.0048
    SETDIJ:  cpu time      0.0017: real time      0.0017
     EDDAV:  cpu time      3.8584: real time      3.8740
       DOS:  cpu time      0.0048: real time      0.0049
    CHARGE:  cpu time      0.0877: real time      0.0880
    MIXING:  cpu time      0.0003: real time      0.0003
    --------------------------------------------
      LOOP:  cpu time      3.9576: real time      3.9738

 eigenvalue-minimisations  : 21512
 total energy-change (2. order) : 0.1731462E-01  (-0.3502684E-01)
 number of electron     208.9999777 magnetization 
 augmentation part       38.2794737 magnetization 

 Broyden mixing:
  rms(total) = 0.12613E+00    rms(broyden)= 0.12607E+00
  rms(prec ) = 0.22200E+00
  weight for this iteration     100.00

 eigenvalues of (default mixing * dielectric matrix)
  average eigenvalue GAMMA=   1.1538
  2.5098  1.6315  0.8276  0.4000  0.4000

 Free energy of the ion-electron system (eV)
  ---------------------------------------------------
  alpha Z        PSCENC =      1697.23846580
  Ewald energy   TEWEN  =    -21789.67884665
  -Hartree energ DENC   =     -3816.63909833
  -exchange      EXHF   =         0.00000000
  -V(xc)+E(xc)   XCENC  =       841.63022161
  PAW double counting   =     26334.04025973   -26060.81194025
  entropy T*S    EENTRO =        -0.00248591
  eigenvalues    EBANDS =     -2897.15490508
  atomic energy  EATOM  =     25513.25376244
  Solvation  Ediel_sol  =         0.00000000
  ---------------------------------------------------
  free energy    TOTEN  =      -178.12456666 eV

  energy without entropy =     -178.12208074  energy(sigma->0) =     -178.12332370


--------------------------------------------------------------------------------------------------------




--------------------------------------- Iteration      1(  11)  ---------------------------------------


    POTLOK:  cpu time      0.0047: real time      0.0048
    SETDIJ:  cpu time      0.0017: real time      0.0017
     EDDAV:  cpu time      3.8490: real time      3.8647
       DOS:  cpu time      0.0048: real time      0.0048
    CHARGE:  cpu time      0.0856: real time      0.0859
    MIXING:  cpu time      0.0003: real time      0.0003
    --------------------------------------------
      LOOP:  cpu time      3.9460: real time      3.9622

 eigenvalue-minimisations  : 21464
 total energy-change (2. order) : 0.5404204E-02  (-0.1056716E-01)
 number of electron     208.9999777 magnetization 
 augmentation part       38.2496674 magnetization 

 Broyden mixing:
  rms(total) = 0.55200E-01    rms(broyden)= 0.55113E-01
  rms(prec ) = 0.13554E+00
  weight for this iteration     100.00

 eigenvalues of (default mixing * dielectric matrix)
  average eigenvalue GAMMA=   1.0543
  2.5019  1.6425  0.8912  0.4932  0.4254  0.3716

 Free energy of the ion-electron system (eV)
  ---------------------------------------------------
  alpha Z        PSCENC =      1697.23846580
  Ewald energy   TEWEN  =    -21789.67884665
  -Hartree energ DENC   =     -3818.33892487
  -exchange      EXHF   =         0.00000000
  -V(xc)+E(xc)   XCENC  =       841.70288121
  PAW double counting   =     26424.84324165   -26149.81276899
  entropy T*S    EENTRO =        -0.00261492
  eigenvalues    EBANDS =     -2897.32435812
  atomic energy  EATOM  =     25513.25376244
  Solvation  Ediel_sol  =         0.00000000
  ---------------------------------------------------
  free energy    TOTEN  =      -178.11916245 eV

  energy without entropy =     -178.11654753  energy(sigma->0) =     -178.11785499


--------------------------------------------------------------------------------------------------------




--------------------------------------- Iteration      1(  12)  ---------------------------------------


    POTLOK:  cpu time      0.0047: real time      0.0048
    SETDIJ:  cpu time      0.0017: real time      0.0017
     EDDAV:  cpu time      3.8526: real time      3.8683
       DOS:  cpu time      0.0050: real time      0.0050
    CHARGE:  cpu time      0.0877: real time      0.0880
    MIXING:  cpu time      0.0003: real time      0.0003
    --------------------------------------------
      LOOP:  cpu time      3.9520: real time      3.9683

 eigenvalue-minimisations  : 21496
 total energy-change (2. order) : 0.5539287E-02  (-0.3048490E-02)
 number of electron     208.9999777 magnetization 
 augmentation part       38.2514366 magnetization 

[...]
     33     -24.6757      2.00000
     34     -24.6470      2.00000
     35     -24.3066      2.00000
     36     -24.2107      2.00000
     37     -24.1141      2.00000
     38     -24.0755      2.00000
     39     -24.0551      2.00000
     40     -24.0052      2.00000
     41     -23.9959      2.00000
     42     -23.8934      2.00000
     43     -23.8218      2.00000
     44     -21.0920      2.00000
     45     -21.0418      2.00000
     46     -20.9986      2.00000
     47     -20.9472      2.00000
     48     -20.8772      2.00000
     49     -20.7988      2.00000
     50     -20.7380      2.00000
     51     -20.7210      2.00000
     52     -20.7129      2.00000
     53     -20.6965      2.00000
     54     -20.6837      2.00000
     55     -20.6596      2.00000
     56     -20.5592      2.00000
     57     -20.5195      2.00000
     58     -20.4411      2.00000
     59     -20.4096      2.00000
     60     -20.3644      2.00000
     61     -20.3231      2.00000
     62       4.7001      2.00000
     63       5.1550      2.00000
     64       5.5142      2.00000
     65       5.7867      2.00000
     66       6.1096      2.00000
     67       6.2277      2.00000
     68       6.4088      2.00000
     69       6.8972      2.00000
     70       7.0705      2.00000
     71       7.1009      2.00000
     72       7.1358      2.00000
     73       7.2037      2.00000
     74       7.2407      2.00000
     75       7.2903      2.00000
     76       7.3131      2.00000
     77       7.3807      2.00000
     78       7.4059      2.00000
     79       7.4691      2.00000
     80       7.5386      2.00000
     81       7.5957      2.00000
     82       7.8321      2.00000
     83       7.8755      2.00000
     84       7.9004      2.00000
     85       7.9968      2.00000
     86       8.0280      2.00000
     87       8.0538      2.00000
     88       8.0770      2.00000
     89       8.1148      2.00000
     90       8.1320      2.00000
     91       8.1589      2.00000
     92       8.1756      2.00000
     93       8.2139      2.00000
     94       8.2360      2.00000
     95       8.2749      2.00000
     96       8.2997      2.00000
     97       8.3681      2.00000
     98       8.3794      2.00000
     99       8.4153      2.00000
    100       8.4495      2.00000
    101       8.4713      2.00000
    102       8.5294      2.00000
    103       8.5576      2.00000
    104       8.6129      2.00000
    105       8.6449      2.00000
    106       8.6838      2.00000
    107       8.7266      2.00000
    108       8.7775      2.00000
    109       9.1919      2.00000
    110      11.6281      0.00000
    111      11.7714      0.00000
    112      11.8426      0.00000
    113      11.9024      0.00000
    114      11.9654      0.00000
    115      12.0323      0.00000
    116      12.0358      0.00000
    117      12.1768      0.00000
    118      12.2468      0.00000
    119      12.3039      0.00000
    120      12.3473      0.00000
    121      12.4279      0.00000
    122      12.4573      0.00000
    123      12.5023      0.00000
    124      12.6402      0.00000
    125      12.6915      0.00000
    126      12.7463      0.00000
    127      12.8105      0.00000
    128      12.8784      0.00000

 k-point    63 :       0.4000   -0.4000    0.4000
  band No.  band energies     occupation 
      1     -63.8513      2.00000
      2     -63.8225      2.00000
      3     -50.7998      2.00000
      4     -50.7681      2.00000
      5     -50.7422      2.00000
      6     -50.7299      2.00000
      7     -50.7063      2.00000
      8     -44.6750      2.00000
      9     -44.6536      2.00000
     10     -44.6208      2.00000
     11     -44.6011      2.00000
     12     -44.5518      2.00000
     13     -44.5075      2.00000
     14     -28.2043      2.00000
     15     -28.0727      2.00000
     16     -28.0629      2.00000
     17     -28.0364      2.00000
     18     -28.0164      2.00000
     19     -27.9063      2.00000
     20     -25.1036      2.00000
     21     -25.0700      2.00000
     22     -25.0442      2.00000
     23     -25.0104      2.00000
     24     -24.9883      2.00000
     25     -24.9610      2.00000
     26     -24.8984      2.00000
     27     -24.8728      2.00000
     28     -24.8356      2.00000
     29     -24.8236      2.00000
     30     -24.7649      2.00000
     31     -24.7427      2.00000
     32     -24.7081      2.00000
     33     -24.6738      2.00000
     34     -24.6472      2.00000
     35     -24.3041      2.00000
     36     -24.2111      2.00000
     37     -24.1138      2.00000
     38     -24.0765      2.00000
     39     -24.0550      2.00000
     40     -24.0061      2.00000
     41     -23.9962      2.00000
     42     -23.8944      2.00000
     43     -23.8222      2.00000
     44     -21.0930      2.00000
     45     -21.0396      2.00000
     46     -20.9961      2.00000
     47     -20.9468      2.00000
     48     -20.8767      2.00000
     49     -20.8009      2.00000
     50     -20.7341      2.00000
     51     -20.7246      2.00000
     52     -20.7131      2.00000
     53     -20.6970      2.00000
     54     -20.6878      2.00000
     55     -20.6590      2.00000
     56     -20.5594      2.00000
     57     -20.5193      2.00000
     58     -20.4415      2.00000
     59     -20.4104      2.00000
     60     -20.3660      2.00000
     61     -20.3187      2.00000
     62       4.6981      2.00000
     63       5.1327      2.00000
     64       5.5825      2.00000
     65       5.7807      2.00000
     66       6.0526      2.00000
     67       6.2448      2.00000
     68       6.3861      2.00000
     69       6.9350      2.00000
     70       7.1019      2.00000
     71       7.1192      2.00000
     72       7.1637      2.00000
     73       7.1698      2.00000
     74       7.1927      2.00000
     75       7.2641      2.00000
     76       7.3140      2.00000
     77       7.3240      2.00000
     78       7.4715      2.00000
     79       7.4957      2.00000
     80       7.5474      2.00000
     81       7.5892      2.00000
     82       7.8328      2.00000
     83       7.8730      2.00000
     84       7.9299      2.00000
     85       7.9998      2.00000
     86       8.0233      2.00000
     87       8.0370      2.00000
     88       8.0759      2.00000
     89       8.0875      2.00000
     90       8.1076      2.00000
     91       8.1496      2.00000
     92       8.1666      2.00000
     93       8.2009      2.00000
     94       8.2371      2.00000
     95       8.2682      2.00000
     96       8.3123      2.00000
     97       8.3623      2.00000
     98       8.3907      2.00000
     99       8.4213      2.00000
    100       8.4489      2.00000
    101       8.4845      2.00000
    102       8.5399      2.00000
    103       8.5865      2.00000
    104       8.6099      2.00000
    105       8.6554      2.00000
    106       8.6751      2.00000
    107       8.7191      2.00000
    108       8.7471      2.00000
    109       9.2152      2.00000
    110      11.6110      0.00000
    111      11.7594      0.00000
    112      11.8481      0.00000
    113      11.9030      0.00000
    114      11.9600      0.00000
    115      12.0290      0.00000
    116      12.0637      0.00000
    117      12.1886      0.00000
    118      12.2564      0.00000
    119      12.3030      0.00000
    120      12.3692      0.00000
    121      12.3950      0.00000
    122      12.4422      0.00000
    123      12.5236      0.00000
    124      12.6115      0.00000
    125      12.6953      0.00000
    126      12.7335      0.00000
    127      12.8544      0.00000
    128      12.9115      0.00000


--------------------------------------------------------------------------------------------------------


 soft charge-density along one line, spin component           1
         0         1         2         3         4         5         6         7         8         9
 total charge-density along one line
 
 pseudopotential strength for first ion, spin component:           1
  5.745 -20.214   0.002   0.000   0.003  -0.004  -0.001  -0.006
-20.214   9.138   0.003   0.000   0.004  -0.000  -0.000  -0.000
  0.002   0.003  -9.718  -0.001  -0.001   5.943   0.001   0.001
  0.000   0.000  -0.001  -9.720   0.002   0.001   5.945  -0.002
  0.003   0.004  -0.001   0.002  -9.719   0.001  -0.002   5.943
 -0.004  -0.000   5.943   0.001   0.001   7.981  -0.001  -0.001
 -0.001  -0.000   0.001   5.945  -0.002  -0.001   7.980   0.002
 -0.006  -0.000   0.001  -0.002   5.943  -0.001   0.002   7.980
 -0.001  -0.000   0.003   0.000   0.002  -0.003  -0.000  -0.002
 -0.001  -0.000   0.000   0.002   0.000  -0.000  -0.002  -0.000
 -0.001  -0.000  -0.001   0.000  -0.001   0.001  -0.000   0.001
  0.002   0.001   0.000   0.002   0.000  -0.000  -0.003  -0.000
 -0.000  -0.000  -0.001   0.000   0.002   0.002   0.000  -0.002
 -0.001  -0.001   0.003   0.000   0.002  -0.004  -0.000  -0.003
 -0.001  -0.000   0.000   0.002   0.000  -0.000  -0.003  -0.000
 -0.001  -0.000  -0.001   0.000  -0.001   0.001  -0.000   0.002
  0.002   0.001   0.000   0.003   0.000  -0.000  -0.004  -0.000
 -0.000  -0.000  -0.002   0.000   0.002   0.002   0.000  -0.003
 total augmentation occupancy for first ion, spin component:           1
  1.995  -0.047  -0.000   0.000   0.000  -0.000   0.000   0.000  -0.001  -0.007  -0.002   0.008   0.000   0.001   0.005   0.002
 -0.047   1.332  -0.002   0.000   0.001  -0.002  -0.000  -0.005  -0.010  -0.006  -0.032   0.029   0.000   0.006  -0.008   0.016
 -0.000  -0.002   1.996   0.000  -0.000  -0.030  -0.001   0.000   0.001   0.002  -0.001   0.001  -0.002  -0.000  -0.001   0.001
  0.000   0.000   0.000   1.996  -0.000  -0.001  -0.030   0.001   0.000  -0.008   0.001   0.000   0.000  -0.000   0.005  -0.001
  0.000   0.001  -0.000  -0.000   1.996   0.000   0.001  -0.030  -0.008   0.000  -0.004   0.002   0.007   0.005  -0.000   0.003
 -0.000  -0.002  -0.030  -0.001   0.000   0.068   0.002  -0.000  -0.013  -0.004   0.004  -0.004   0.008   0.006   0.003  -0.002
  0.000  -0.000  -0.001  -0.030   0.001   0.002   0.066  -0.001  -0.003   0.006   0.000  -0.012  -0.000   0.002  -0.005  -0.000
  0.000  -0.005   0.000   0.001  -0.030  -0.000  -0.001   0.068   0.006  -0.003   0.007  -0.005  -0.011  -0.005   0.002  -0.003
 -0.001  -0.010   0.001   0.000  -0.008  -0.013  -0.003   0.006   3.290   0.033   0.004   0.057  -0.000  -1.383  -0.008  -0.003
 -0.007  -0.006   0.002  -0.008   0.000  -0.004   0.006  -0.003   0.033   3.287  -0.022  -0.041   0.044  -0.008  -1.376   0.010
 -0.002  -0.032  -0.001   0.001  -0.004   0.004   0.000   0.007   0.004  -0.022   2.647   0.026  -0.001  -0.003   0.010  -1.193
  0.008   0.029   0.001   0.000   0.002  -0.004  -0.012  -0.005   0.057  -0.041   0.026   3.290   0.051  -0.041   0.020  -0.011
  0.000   0.000  -0.002   0.000   0.007   0.008  -0.000  -0.011  -0.000   0.044  -0.001   0.051   2.731   0.000  -0.018  -0.000
  0.001   0.006  -0.000  -0.000   0.005   0.006   0.002  -0.005  -1.383  -0.008  -0.003  -0.041   0.000   0.591   0.002   0.002
  0.005  -0.008  -0.001   0.005  -0.000   0.003  -0.005   0.002  -0.008  -1.376   0.010   0.020  -0.018   0.002   0.587  -0.004
  0.002   0.016   0.001  -0.001   0.003  -0.002  -0.000  -0.003  -0.003   0.010  -1.193  -0.011  -0.000   0.002  -0.004   0.544
 -0.006  -0.010  -0.000   0.000  -0.001   0.002   0.006   0.003  -0.041   0.020  -0.011  -1.379  -0.022   0.025  -0.010   0.005
 -0.000  -0.000   0.001  -0.000  -0.005  -0.003   0.000   0.005   0.000  -0.019  -0.000  -0.023  -1.232  -0.000   0.008   0.000


------------------------ aborting loop because EDIFF is reached ----------------------------------------


    CHARGE:  cpu time      0.0881: real time      0.0885
    FORLOC:  cpu time      0.0005: real time      0.0005
    FORNL :  cpu time      0.8367: real time      0.8395
    STRESS:  cpu time      1.0528: real time      1.0567
    FORCOR:  cpu time      0.0063: real time      0.0063
    FORHAR:  cpu time      0.0015: real time      0.0016
    MIXING:  cpu time      0.0006: real time      0.0006
    OFIELD:  cpu time      0.0000: real time      0.0000

  FORCE on cell =-STRESS in cart. coord.  units (eV):
  Direction    XX          YY          ZZ          XY          YZ          ZX
  --------------------------------------------------------------------------------------
  Alpha Z  1697.23847  1697.23847  1697.23847
  Ewald   -7285.92764 -7243.12031 -7260.70019    -0.00000   -10.53841    -6.32305
  Hartree  1249.43056  1292.25377  1277.19316     0.32003    -9.28783    -6.52838
  E(xc)    -961.79081  -961.79343  -961.79387    -0.00746     0.00471     0.02831
  Local    1646.64342  1560.39064  1592.80385    -0.04892    18.36472    12.67227
  n-local  -353.89933  -350.92391  -350.90340     0.02821     2.51458    -0.78190
  augment   479.20683   478.97395   478.94250    -0.04824     0.14711     0.01142
  Kinetic  3504.49795  3501.89492  3501.90619    -0.10179    -1.63495     0.78350
  Fock        0.00000     0.00000     0.00000     0.00000     0.00000     0.00000
  -------------------------------------------------------------------------------------
  Total     -24.60054   -25.08589   -25.31329     0.14183    -0.43008    -0.13783
  in kB    -138.34949  -141.07902  -142.35790     0.79760    -2.41872    -0.77511
  external pressure =     -140.60 kB  Pullay stress =        0.00 kB


 VOLUME and BASIS-vectors are now :
 -----------------------------------------------------------------------------
  energy-cutoff  :      250.00
  volume of cell :      284.89
      direct lattice vectors                 reciprocal lattice vectors
     6.580000000  0.000000000  0.000000000     0.151975684  0.000000000  0.000000000
     0.000000000  6.580000000  0.000000000     0.000000000  0.151975684  0.000000000
     0.000000000  0.000000000  6.580000000     0.000000000  0.000000000  0.151975684

  length of vectors
     6.580000000  6.580000000  6.580000000     0.151975684  0.151975684  0.151975684


 FORCES acting on ions
    electron-ion (+dipol)            ewald-force                    non-local-force                 convergence-correction
 -----------------------------------------------------------------------------------------------
   0.615E+02 0.209E+02 0.408E+02   -.612E+02 -.204E+02 -.408E+02   0.179E+00 -.107E+00 0.566E-01   0.121E-03 0.555E-04 0.478E-04
   -.616E+02 -.209E+02 -.408E+02   0.612E+02 0.204E+02 0.408E+02   -.164E+00 0.131E+00 -.528E-01   -.121E-03 -.740E-04 -.520E-04
   0.616E+02 -.209E+02 0.408E+02   -.612E+02 0.204E+02 -.408E+02   0.102E+00 0.108E+00 0.564E-01   0.782E-04 -.655E-04 0.441E-04
   0.309E+02 0.308E+02 -.997E+01   -.306E+02 -.306E+02 0.102E+02   -.329E-01 0.102E+00 -.354E-01   0.759E-04 0.112E-03 0.828E-05
   -.308E+02 0.308E+02 -.100E+02   0.306E+02 -.306E+02 0.102E+02   0.294E-01 0.871E-01 -.122E-01   -.862E-04 0.824E-04 -.109E-04
   -.616E+02 0.209E+02 0.408E+02   0.612E+02 -.204E+02 -.408E+02   -.167E+00 -.129E+00 0.605E-01   -.105E-03 0.646E-04 0.578E-04
   0.661E+02 0.223E+02 -.439E+02   -.659E+02 -.220E+02 0.439E+02   0.111E+00 -.295E-01 -.217E-01   0.889E-04 0.630E-04 -.407E-04
   -.661E+02 0.224E+02 -.439E+02   0.659E+02 -.220E+02 0.439E+02   -.111E+00 -.471E-01 -.345E-01   -.762E-04 0.638E-04 -.521E-04
   0.332E+02 -.330E+02 -.108E+02   -.329E+02 0.329E+02 0.110E+02   -.246E-01 -.124E+00 -.132E-02   0.765E-04 -.920E-04 -.798E-05
   0.331E+02 0.330E+02 0.109E+02   -.329E+02 -.329E+02 -.110E+02   -.277E-02 0.922E-01 -.198E-01   0.720E-04 0.968E-04 0.787E-05
   0.332E+02 -.330E+02 0.108E+02   -.329E+02 0.329E+02 -.110E+02   -.206E-01 -.699E-01 0.594E-02   0.742E-04 -.819E-04 0.473E-05
   0.522E+02 -.178E+02 -.345E+02   -.518E+02 0.173E+02 0.345E+02   0.149E+00 0.258E-01 -.242E-01   0.109E-03 -.666E-04 -.417E-04
   -.261E+02 -.261E+02 0.838E+01   0.259E+02 0.259E+02 -.863E+01   -.374E-02 -.846E-01 -.176E-02   -.780E-04 -.666E-04 -.259E-05
   -.261E+02 0.260E+02 0.840E+01   0.259E+02 -.259E+02 -.863E+01   -.930E-02 0.940E-01 -.680E-02   -.736E-04 0.727E-04 0.107E-04
   -.331E+02 -.331E+02 -.109E+02   0.329E+02 0.329E+02 0.110E+02   -.278E-01 -.506E-01 0.530E-01   -.826E-04 -.726E-04 -.471E-05
   -.661E+02 -.223E+02 0.439E+02   0.659E+02 0.220E+02 -.439E+02   -.102E+00 -.102E+00 -.246E-01   -.536E-04 -.757E-04 0.433E-04
 -----------------------------------------------------------------------------------------------
   0.954E-01 0.102E+00 0.261E-02   0.213E-12 0.995E-13 -.107E-12   -.954E-01 -.102E+00 -.264E-02   0.195E-04 0.155E-04 0.117E-04
 
 
 POSITION                                       TOTAL-FORCE (eV/Angst)
 -----------------------------------------------------------------------------------
      0.00000      3.29000      3.29000         0.527358      0.413685      0.077693
      3.29000      0.00000      0.00000        -0.537909     -0.384768     -0.071722
      0.00000      0.00000      3.29000         0.503985     -0.351329      0.052206
      1.64500      1.64500      4.93500         0.260143      0.302057      0.188634
      4.93500      1.64500      4.93500        -0.217974      0.255798      0.165362
      3.29000      3.29000      3.29000        -0.572705      0.377740      0.070503
      0.00000      3.29000      0.00000         0.293439      0.341405     -0.007230
      3.29000      3.29000      0.00000        -0.329798      0.367527     -0.005299
      1.64500      4.93500      4.93500         0.192254     -0.157766      0.155965
      1.64500      1.64500      1.64500         0.183593      0.108376     -0.125354
      1.64500      4.93500      1.64500         0.191727     -0.164177     -0.152504
      0.00000      0.00000      0.00000         0.568539     -0.489712     -0.018189
      4.93500      4.93500      1.64500        -0.249403     -0.306838     -0.255734
      4.93500      1.64500      1.64500        -0.252151      0.257011     -0.239838
      4.93500      4.93500      4.93500        -0.209933     -0.175169      0.180150
      3.29000      0.00000      3.29000        -0.351165     -0.393840     -0.014644
 -----------------------------------------------------------------------------------
    total drift:                                0.000002     -0.000006     -0.000013


--------------------------------------------------------------------------------------------------------



  FREE ENERGIE OF THE ION-ELECTRON SYSTEM (eV)
  ---------------------------------------------------
  free  energy   TOTEN  =      -178.11274129 eV

  energy  without entropy=     -178.11021902  energy(sigma->0) =     -178.11148016
 


--------------------------------------------------------------------------------------------------------


    POTLOK:  cpu time      0.0065: real time      0.0255


--------------------------------------------------------------------------------------------------------


     LOOP+:  cpu time     94.7750: real time     95.5141
    4ORBIT:  cpu time      0.0000: real time      0.0000

 total amount of memory used by VASP MPI-rank0    48253. kBytes
=======================================================================

   base      :      30000. kBytes
   nonl-proj :       8332. kBytes
   fftplans  :        456. kBytes
   grid      :        919. kBytes
   one-center:         31. kBytes
   wavefun   :       8515. kBytes
 
  
  
 General timing and accounting informations for this job:
 ========================================================
  
                  Total CPU time used (sec):      107.226
                            User time (sec):      105.755
                          System time (sec):        1.471
                         Elapsed time (sec):      109.547
  
                   Maximum memory used (kb):       90568.
                   Average memory used (kb):          N/A
  
                          Minor page faults:        10350
                          Major page faults:            0
                 Voluntary context switches:          260
