 vasp.6.3.1 04May22 (build Jul 26 2022 04:02:40) complex                        
  
 executed on             LinuxIFC date 2023.11.30  23:20:24
 running on   48 total cores
 distrk:  each k-point on   48 cores,    1 groups
 distr:  one band on NCORE=  12 cores,    4 groups


--------------------------------------------------------------------------------------------------------


 INCAR:
   ISTART = 0
   NWRITE = 2
   PREC = Accurate
   ENCUT = 250
   GGA = PE
   NSW = 0
   ISIF = 2
   ISYM = 2
   NBLOCK = 1
   KBLOCK = 1
   IBRION = -1
   NELM = 80
   EDIFF = 1E-08
   EDIFFG = -0.01
   ALGO = Normal
   LDIAG = .TRUE.
   LREAL = .FALSE.
   ISMEAR = 0
   SIGMA = 0.02
   ICHARG = 2
   LPLANE = .TRUE.
   NPAR = 4
   LSCALU = .FALSE.
   NSIM = 4
   LWAVE = .FALSE.
   LCHARG = .FALSE.
   ICORELEVEL = 1

 POTCAR:    PAW_PBE Nb_sv 25May2007               
 POTCAR:    PAW_PBE Mo_sv 02Feb2006               
 POTCAR:    PAW_PBE Ta_pv 07Sep2000               
 POTCAR:    PAW_PBE W_sv 04Sep2015                
 POTCAR:    PAW_PBE Nb_sv 25May2007               
   SHA256 =  0e8fc07c9fcd1164cf2ade22d0399fd28f85e91cd773dfa6cf24839a48c95e24 Nb_sv/POTCAR          
   COPYR  = (c) Copyright 25May2007 Georg Kresse                                                    
   COPYR  = This file is part of the software VASP. Any use, copying, and all other rights are regul
   COPYR  = If you do not have a valid VASP license, you may not use, copy or distribute this file. 
   VRHFIN =Nb: 4p5s4d                                                                               
   LEXCH  = PE                                                                                      
   EATOM  =  1555.1913 eV,  114.3033 Ry                                                             
                                                                                                    
   TITEL  = PAW_PBE Nb_sv 25May2007                                                                 
   LULTRA =        F    use ultrasoft PP ?                                                          
   IUNSCR =        1    unscreen: 0-lin 1-nonlin 2-no                                               
   RPACOR =    1.800    partial core radius                                                         
   POMASS =   92.910; ZVAL   =   13.000    mass and valenz                                          
   RCORE  =    2.400    outmost cutoff radius                                                       
   RWIGS  =    2.400; RWIGS  =    1.270    wigner-seitz radius (au A)                               
   ENMAX  =  293.235; ENMIN  =  219.927 eV                                                          
   ICORE  =        3    local potential                                                             
   LCOR   =        T    correct aug charges                                                         
   LPAW   =        T    paw PP                                                                      
   EAUG   =  455.659                                                                                
   DEXC   =    0.000                                                                                
   RMAX   =    2.456    core radius for proj-oper                                                   
   RAUG   =    1.300    factor for augmentation sphere                                              
   RDEP   =    2.451    radius for radial grids                                                     
   RDEPT  =    1.956    core radius for aug-charge                                                  
                                                                                                    
   Atomic configuration                                                                             
   11 entries                                                                                       
     n  l   j            E        occ.                                                              
     1  0  0.50    -18805.2457   2.0000                                                             
     2  0  0.50     -2630.2869   2.0000                                                             
     2  1  1.50     -2348.4046   6.0000                                                             
     3  0  0.50      -438.8757   2.0000                                                             
     3  1  1.50      -346.7588   6.0000                                                             
     3  2  2.50      -196.2560  10.0000                                                             
     4  0  0.50       -58.3859   2.0000                                                             
     5  0  0.50        -3.9816   1.0000                                                             
     4  1  1.50       -34.5141   6.0000                                                             
     4  2  2.50        -3.0408   4.0000                                                             
     4  3  2.50        -1.3606   0.0000                                                             
   Description                                                                                      
     l       E           TYP  RCUT    TYP  RCUT                                                     
     0    -58.3859094     23  2.200                                                                 
     0     -3.9816262     23  2.200                                                                 
     1    -34.5140738     23  2.200                                                                 
     1     13.6058260     23  2.200                                                                 
     2     -3.0408010     23  2.200                                                                 
     2     -0.1283038     23  2.200                                                                 
     3     -1.3605826     23  2.400                                                                 
  local pseudopotential read in
  partial core-charges read in
  partial kinetic energy density read in
  atomic valenz-charges read in
  non local Contribution for L=           0  read in
    real space projection operators read in
  non local Contribution for L=           0  read in
    real space projection operators read in
  non local Contribution for L=           1  read in
    real space projection operators read in
  non local Contribution for L=           1  read in
    real space projection operators read in
  non local Contribution for L=           2  read in
    real space projection operators read in
  non local Contribution for L=           2  read in
    real space projection operators read in
    PAW grid and wavefunctions read in
 
   number of l-projection  operators is LMAX  =           6
   number of lm-projection operators is LMMAX =          18
 
 POTCAR:    PAW_PBE Mo_sv 02Feb2006               
   SHA256 =  2731df97e41766cc617548c5a8267718fdef1f509ac6bafa01e745abea2bdfaa Mo_sv/POTCAR          
   COPYR  = (c) Copyright 02Feb2006 Georg Kresse                                                    
   COPYR  = This file is part of the software VASP. Any use, copying, and all other rights are regul
   COPYR  = If you do not have a valid VASP license, you may not use, copy or distribute this file. 
   VRHFIN =Mo: 4p5s4d                                                                               
   LEXCH  = PE                                                                                      
   EATOM  =  1862.2866 eV,  136.8742 Ry                                                             
                                                                                                    
   TITEL  = PAW_PBE Mo_sv 02Feb2006                                                                 
   LULTRA =        F    use ultrasoft PP ?                                                          
   IUNSCR =        1    unscreen: 0-lin 1-nonlin 2-no                                               
   RPACOR =    2.200    partial core radius                                                         
   POMASS =   95.940; ZVAL   =   14.000    mass and valenz                                          
   RCORE  =    2.500    outmost cutoff radius                                                       
   RWIGS  =    2.750; RWIGS  =    1.455    wigner-seitz radius (au A)                               
   ENMAX  =  242.676; ENMIN  =  182.007 eV                                                          
   ICORE  =        3    local potential                                                             
   LCOR   =        T    correct aug charges                                                         
   LPAW   =        T    paw PP                                                                      
   EAUG   =  446.014                                                                                
   DEXC   =    0.000                                                                                
   RMAX   =    2.563    core radius for proj-oper                                                   
   RAUG   =    1.300    factor for augmentation sphere                                              
   RDEP   =    2.641    radius for radial grids                                                     
   RDEPT  =    2.031    core radius for aug-charge                                                  
                                                                                                    
   Atomic configuration                                                                             
   11 entries                                                                                       
     n  l   j            E        occ.                                                              
     1  0  0.50    -19819.0341   2.0000                                                             
     2  0  0.50     -2799.0127   2.0000                                                             
     2  1  1.50     -2502.0276   6.0000                                                             
     3  0  0.50      -476.4449   2.0000                                                             
     3  1  1.50      -379.1496   6.0000                                                             
     3  2  2.50      -220.9367  10.0000                                                             
     4  0  0.50       -64.3378   2.0000                                                             
     5  0  0.50        -4.0862   1.0000                                                             
     4  1  1.50       -38.4773   6.0000                                                             
     4  2  2.50        -3.7535   5.0000                                                             
     4  3  2.50        -1.3606   0.0000                                                             
   Description                                                                                      
     l       E           TYP  RCUT    TYP  RCUT                                                     
     0    -64.3377829     23  2.100                                                                 
     0     -4.0861640     23  2.400                                                                 
     1    -38.4772993     23  2.100                                                                 
     1     13.6058260     23  2.100                                                                 
     2     -3.7534941     23  2.400                                                                 
     2     -5.1140767     23  2.400                                                                 
     3     -4.0817478     23  2.500                                                                 
  local pseudopotential read in
  partial core-charges read in
  partial kinetic energy density read in
  atomic valenz-charges read in
  non local Contribution for L=           0  read in
    real space projection operators read in
  non local Contribution for L=           0  read in
    real space projection operators read in
  non local Contribution for L=           1  read in
    real space projection operators read in
  non local Contribution for L=           1  read in
    real space projection operators read in
  non local Contribution for L=           2  read in
    real space projection operators read in
  non local Contribution for L=           2  read in
    real space projection operators read in
    PAW grid and wavefunctions read in
 
   number of l-projection  operators is LMAX  =           6
   number of lm-projection operators is LMMAX =          18
 
 POTCAR:    PAW_PBE Ta_pv 07Sep2000               
   SHA256 =  00d0a14a36c127416459414afb8617d9754996fffa60a2465888e660b20a452f Ta_pv/POTCAR          
   COPYR  = (c) Copyright 07Sep2000 Georg Kresse                                                    
   COPYR  = This file is part of the software VASP. Any use, copying, and all other rights are regul
   COPYR  = If you do not have a valid VASP license, you may not use, copy or distribute this file. 
   VRHFIN =Ta:  5p6s5d                                                                              
   LEXCH  = PE                                                                                      
   EATOM  =  1047.1984 eV,   76.9669 Ry                                                             
                                                                                                    
   TITEL  = PAW_PBE Ta_pv 07Sep2000                                                                 
   LULTRA =        F    use ultrasoft PP ?                                                          
   IUNSCR =        1    unscreen: 0-lin 1-nonlin 2-no                                               
   RPACOR =    2.330    partial core radius                                                         
   POMASS =  180.948; ZVAL   =   11.000    mass and valenz                                          
   RCORE  =    2.500    outmost cutoff radius                                                       
   RWIGS  =    2.840; RWIGS  =    1.503    wigner-seitz radius (au A)                               
   ENMAX  =  223.667; ENMIN  =  167.750 eV                                                          
   RCLOC  =    2.205    cutoff for local pot                                                        
   LCOR   =        T    correct aug charges                                                         
   LPAW   =        T    paw PP                                                                      
   EAUG   =  377.421                                                                                
   DEXC   =    0.000                                                                                
   RMAX   =    2.551    core radius for proj-oper                                                   
   RAUG   =    1.300    factor for augmentation sphere                                              
   RDEP   =    2.526    radius for radial grids                                                     
   RDEPT  =    2.132    core radius for aug-charge                                                  
                                                                                                    
   Atomic configuration                                                                             
   15 entries                                                                                       
     n  l   j            E        occ.                                                              
     1  0  0.50    -67341.2801   2.0000                                                             
     2  0  0.50    -11566.9369   2.0000                                                             
     2  1  1.50    -10134.1175   6.0000                                                             
     3  0  0.50     -2648.5614   2.0000                                                             
     3  1  1.50     -2222.6006   6.0000                                                             
     3  2  2.50     -1726.3114  10.0000                                                             
     4  0  0.50      -538.6957   2.0000                                                             
     4  1  1.50      -399.0125   6.0000                                                             
     4  2  2.50      -220.3955  10.0000                                                             
     4  3  3.50       -23.0371  14.0000                                                             
     5  0  0.50       -71.2900   2.0000                                                             
     5  1  1.50       -37.8224   6.0000                                                             
     5  2  2.50        -2.6455   4.0000                                                             
     6  0  0.50        -4.9623   1.0000                                                             
     5  3  2.50        -1.3606   0.0000                                                             
   Description                                                                                      
     l       E           TYP  RCUT    TYP  RCUT                                                     
     1    -37.8224449     23  2.500                                                                 
     1      1.3605826     23  2.500                                                                 
     2     -2.6454718     23  2.500                                                                 
     2     -0.6258570     23  2.500                                                                 
     0     -4.9622674     23  2.500                                                                 
     0      4.7531427     23  2.500                                                                 
  local pseudopotential read in
  partial core-charges read in
  partial kinetic energy density read in
  atomic valenz-charges read in
  non local Contribution for L=           1  read in
    real space projection operators read in
  non local Contribution for L=           1  read in
    real space projection operators read in
  non local Contribution for L=           2  read in
    real space projection operators read in
  non local Contribution for L=           2  read in
    real space projection operators read in
  non local Contribution for L=           0  read in
    real space projection operators read in
  non local Contribution for L=           0  read in
    real space projection operators read in
    PAW grid and wavefunctions read in
 
   number of l-projection  operators is LMAX  =           6
   number of lm-projection operators is LMMAX =          18
 
 POTCAR:    PAW_PBE W_sv 04Sep2015                
   SHA256 =  931c2d770f65867ef30f3db3421922900fc0890ebac5c3e12f63b6a2064023d7 W_sv/POTCAR           
   COPYR  = (c) Copyright 04Sep2015 Georg Kresse                                                    
   COPYR  = This file is part of the software VASP. Any use, copying, and all other rights are regul
   COPYR  = If you do not have a valid VASP license, you may not use, copy or distribute this file. 
   VRHFIN =W : 5p6s5d                                                                               
   LEXCH  = PE                                                                                      
   EATOM  =  1865.5791 eV,  137.1162 Ry                                                             
                                                                                                    
   TITEL  = PAW_PBE W_sv 04Sep2015                                                                  
   LULTRA =        F    use ultrasoft PP ?                                                          
   IUNSCR =        1    unscreen: 0-lin 1-nonlin 2-no                                               
   RPACOR =    2.330    partial core radius                                                         
   POMASS =  183.850; ZVAL   =   14.000    mass and valenz                                          
   RCORE  =    2.500    outmost cutoff radius                                                       
   RWIGS  =    2.750; RWIGS  =    1.455    wigner-seitz radius (au A)                               
   ENMAX  =  223.057; ENMIN  =  167.293 eV                                                          
   ICORE  =        3    local potential                                                             
   LCOR   =        T    correct aug charges                                                         
   LPAW   =        T    paw PP                                                                      
   EAUG   =  373.438                                                                                
   DEXC   =    0.000                                                                                
   RMAX   =    2.565    core radius for proj-oper                                                   
   RAUG   =    1.300    factor for augmentation sphere                                              
   RDEP   =    2.539    radius for radial grids                                                     
   RDEPT  =    2.126    core radius for aug-charge                                                  
                                                                                                    
   Atomic configuration                                                                             
   15 entries                                                                                       
     n  l   j            E        occ.                                                              
     1  0  0.50    -69465.5834   2.0000                                                             
     2  0  0.50    -11986.2640   2.0000                                                             
     2  1  1.50    -10479.8613   6.0000                                                             
     3  0  0.50     -2759.0756   2.0000                                                             
     3  1  1.50     -2313.1855   6.0000                                                             
     3  2  2.50     -1801.1183  10.0000                                                             
     4  0  0.50      -567.6789   2.0000                                                             
     4  1  1.50      -421.4692   6.0000                                                             
     4  2  2.50      -236.3471  10.0000                                                             
     4  3  3.50       -31.2665  14.0000                                                             
     5  0  0.50       -77.1084   2.0000                                                             
     6  0  0.50        -5.1438   1.0000                                                             
     5  1  1.50       -41.3856   6.0000                                                             
     5  2  2.50        -3.3185   5.0000                                                             
     5  3  2.50        -1.3606   0.0000                                                             
   Description                                                                                      
     l       E           TYP  RCUT    TYP  RCUT                                                     
     0    -77.1084470     23  2.100                                                                 
     0     -5.1437956     23  2.300                                                                 
     1    -41.3855615     23  2.500                                                                 
     1     -2.7211652     23  2.500                                                                 
     2     -3.3185025     23  2.500                                                                 
     2     -1.5965151     23  2.500                                                                 
     3     -1.3605826     23  2.500                                                                 
  local pseudopotential read in
  partial core-charges read in
  partial kinetic energy density read in
  kinetic energy density of atom read in
  atomic valenz-charges read in
  non local Contribution for L=           0  read in
    real space projection operators read in
  non local Contribution for L=           0  read in
    real space projection operators read in
  non local Contribution for L=           1  read in
    real space projection operators read in
  non local Contribution for L=           1  read in
    real space projection operators read in
  non local Contribution for L=           2  read in
    real space projection operators read in
  non local Contribution for L=           2  read in
    real space projection operators read in
    PAW grid and wavefunctions read in
 
   number of l-projection  operators is LMAX  =           6
   number of lm-projection operators is LMMAX =          18
 
 -----------------------------------------------------------------------------
|                                                                             |
|               ----> ADVICE to this user running VASP <----                  |
|                                                                             |
|     You have a (more or less) 'large supercell' and for larger cells it     |
|     might be more efficient to use real-space projection operators.         |
|     Therefore, try LREAL= Auto in the INCAR file.                           |
|     Mind: For very accurate calculation, you might also keep the            |
|     reciprocal projection scheme (i.e. LREAL=.FALSE.).                      |
|                                                                             |
 -----------------------------------------------------------------------------

  PAW_PBE Nb_sv 25May2007               :
 energy of atom  1       EATOM=-1555.1913
 kinetic energy error for atom=    0.2155 (will be added to EATOM!!)
  PAW_PBE Mo_sv 02Feb2006               :
 energy of atom  2       EATOM=-1862.2866
 kinetic energy error for atom=    0.1102 (will be added to EATOM!!)
  PAW_PBE Ta_pv 07Sep2000               :
 energy of atom  3       EATOM=-1047.1984
 kinetic energy error for atom=    0.0394 (will be added to EATOM!!)
  PAW_PBE W_sv 04Sep2015                :
 energy of atom  4       EATOM=-1865.5791
 kinetic energy error for atom=    0.0589 (will be added to EATOM!!)
 
 
 POSCAR: Nb-Mo-Ta-W alloy
  positions in direct lattice
  No initial velocities read in
 exchange correlation table for  LEXCH =        8
   RHO(1)=    0.500       N(1)  =     2000
   RHO(2)=  100.500       N(2)  =     4000
 


--------------------------------------------------------------------------------------------------------


 ion  position               nearest neighbor table
   1  0.125  0.375  0.750-   8 2.85  13 2.85  20 2.85  31 2.85  33 2.85  44 2.85  50 2.85  56 2.85
                            32 3.29  32 3.29
   2  0.000  0.000  0.500-   9 2.85  24 2.85  30 2.85  38 2.85  41 2.85  43 2.85  53 2.85  61 2.85

   3  0.500  0.750  0.500-   6 2.85  21 2.85  27 2.85  39 2.85  42 2.85  47 2.85  52 2.85  62 2.85

   4  0.875  0.375  0.750-   8 2.85  20 2.85  31 2.85  37 2.85  49 2.85  50 2.85  58 2.85  59 2.85
                            34 3.29
   5  0.250  0.000  0.500-   9 2.85  27 2.85  30 2.85  35 2.85  36 2.85  41 2.85  61 2.85  62 2.85

   6  0.625  0.875  0.250-   3 2.85  17 2.85  19 2.85  22 2.85  25 2.85  26 2.85  28 2.85  40 2.85
                            38 3.29
   7  0.000  0.000  0.000-   9 2.85  24 2.85  30 2.85  38 2.85  41 2.85  43 2.85  53 2.85  61 2.85

   8  0.000  0.500  0.000-   1 2.85   4 2.85  10 2.85  32 2.85  45 2.85  51 2.85  54 2.85  63 2.85
                            33 3.29
   9  0.125  0.125  0.250-   2 2.85   5 2.85   7 2.85  20 2.85  31 2.85  44 2.85  55 2.85  56 2.85
                            32 3.29  35 3.29  41 3.29
  10  0.125  0.625  0.750-   8 2.85  11 2.85  13 2.85  16 2.85  23 2.85  29 2.85  33 2.85  50 2.85
                            39 3.29
  11  0.000  0.750  0.500-  10 2.85  30 2.85  38 2.85  41 2.85  43 2.85  45 2.85  51 2.85  54 2.85

  12  0.375  0.375  0.750-  13 2.85  15 2.85  18 2.85  33 2.85  44 2.85  56 2.85  57 2.85  60 2.85
                            36 3.29  39 3.29  34 3.29
  13  0.250  0.500  0.500-   1 2.85  10 2.85  12 2.85  32 2.85  39 2.85  42 2.85  45 2.85  46 2.85
                            33 3.29  33 3.29
  14  0.625  0.375  0.250-  15 2.85  18 2.85  37 2.85  49 2.85  57 2.85  58 2.85  59 2.85  60 2.85
                            34 3.29  34 3.29
  15  0.500  0.250  0.500-  12 2.85  14 2.85  34 2.85  35 2.85  36 2.85  46 2.85  48 2.85  64 2.85

  16  0.250  0.750  0.000-  10 2.85  27 2.85  30 2.85  39 2.85  41 2.85  42 2.85  45 2.85  62 2.85
                            33 3.29
  17  0.750  0.750  0.500-   6 2.85  21 2.85  38 2.85  43 2.85  47 2.85  51 2.85  52 2.85  54 2.85
                            40 3.29  40 3.29
  18  0.500  0.500  0.000-  12 2.85  14 2.85  21 2.85  34 2.85  39 2.85  42 2.85  46 2.85  47 2.85
                            33 3.29
  19  0.500  0.000  0.000-   6 2.85  27 2.85  35 2.85  36 2.85  48 2.85  52 2.85  62 2.85  64 2.85
                            25 3.29  55 3.29  60 3.29  26 3.29  22 3.29  25 3.29
  20  0.000  0.250  0.500-   1 2.85   4 2.85   9 2.85  24 2.85  32 2.85  53 2.85  61 2.85  63 2.85
                            31 3.29  59 3.29  44 3.29  50 3.29  31 3.29
  21  0.625  0.625  0.750-   3 2.85  17 2.85  18 2.85  26 2.85  40 2.85  49 2.85  57 2.85  58 2.85
                            39 3.29  51 3.29  52 3.29  34 3.29  47 3.29  47 3.29
  22  0.750  0.000  0.000-   6 2.85  24 2.85  38 2.85  43 2.85  48 2.85  52 2.85  53 2.85  64 2.85
                            37 3.29  19 3.29  40 3.29  28 3.29  28 3.29
  23  0.000  0.750  0.000-  10 2.85  30 2.85  38 2.85  41 2.85  43 2.85  45 2.85  51 2.85  54 2.85
                            40 3.29
  24  0.875  0.125  0.250-   2 2.85   7 2.85  20 2.85  22 2.85  28 2.85  31 2.85  37 2.85  59 2.85
                            48 3.29  53 3.29  38 3.29  63 3.29  53 3.29
  25  0.500  0.000  0.500-   6 2.85  27 2.85  35 2.85  36 2.85  48 2.85  52 2.85  62 2.85  64 2.85
                            19 3.29  28 3.29  19 3.29
  26  0.500  0.750  0.000-   6 2.85  21 2.85  27 2.85  39 2.85  42 2.85  47 2.85  52 2.85  62 2.85
                            19 3.29  40 3.29
  27  0.375  0.875  0.250-   3 2.85   5 2.85  16 2.85  19 2.85  25 2.85  26 2.85  29 2.85  55 2.85
                            41 3.29  42 3.29  35 3.29  62 3.29  62 3.29
  28  0.750  0.000  0.500-   6 2.85  24 2.85  38 2.85  43 2.85  48 2.85  52 2.85  53 2.85  64 2.85
                            22 3.29  59 3.29  25 3.29  22 3.29
  29  0.250  0.750  0.500-  10 2.85  27 2.85  30 2.85  39 2.85  41 2.85  42 2.85  45 2.85  62 2.85

  30  0.125  0.875  0.750-   2 2.85   5 2.85   7 2.85  11 2.85  16 2.85  23 2.85  29 2.85  55 2.85
                            43 3.29  41 3.29  61 3.29  62 3.29  41 3.29
  31  0.000  0.250  0.000-   1 2.85   4 2.85   9 2.85  24 2.85  32 2.85  53 2.85  61 2.85  63 2.85
                            56 3.29  37 3.29  20 3.29  20 3.29
  32  0.125  0.375  0.250-   8 2.85  13 2.85  20 2.85  31 2.85  33 2.85  44 2.85  50 2.85  56 2.85
                            45 3.29  46 3.29   9 3.29   1 3.29  63 3.29   1 3.29
  33  0.250  0.500  0.000-   1 2.85  10 2.85  12 2.85  32 2.85  39 2.85  42 2.85  45 2.85  46 2.85
                            13 3.29  16 3.29  18 3.29   8 3.29  56 3.29  13 3.29
  34  0.625  0.375  0.750-  15 2.85  18 2.85  37 2.85  49 2.85  57 2.85  58 2.85  59 2.85  60 2.85
                            12 3.29  21 3.29  14 3.29   4 3.29  64 3.29  14 3.29
  35  0.375  0.125  0.250-   5 2.85  15 2.85  19 2.85  25 2.85  44 2.85  55 2.85  56 2.85  60 2.85
                            46 3.29  48 3.29  27 3.29  36 3.29   9 3.29  36 3.29
  36  0.375  0.125  0.750-   5 2.85  15 2.85  19 2.85  25 2.85  44 2.85  55 2.85  56 2.85  60 2.85
                            12 3.29  35 3.29  61 3.29  62 3.29  64 3.29  35 3.29
  37  0.750  0.250  0.000-   4 2.85  14 2.85  24 2.85  34 2.85  48 2.85  53 2.85  63 2.85  64 2.85
                            22 3.29  59 3.29  60 3.29  31 3.29  49 3.29  59 3.29
  38  0.875  0.875  0.250-   2 2.85   7 2.85  11 2.85  17 2.85  22 2.85  23 2.85  28 2.85  40 2.85
                             6 3.29  24 3.29  41 3.29  43 3.29  54 3.29  43 3.29
  39  0.375  0.625  0.750-   3 2.85  13 2.85  16 2.85  18 2.85  26 2.85  29 2.85  33 2.85  57 2.85
                            10 3.29  21 3.29  42 3.29  12 3.29  62 3.29  42 3.29
  40  0.750  0.750  0.000-   6 2.85  21 2.85  38 2.85  43 2.85  47 2.85  51 2.85  52 2.85  54 2.85
                            23 3.29  49 3.29  26 3.29  17 3.29  22 3.29  17 3.29
  41  0.125  0.875  0.250-   2 2.85   5 2.85   7 2.85  11 2.85  16 2.85  23 2.85  29 2.85  55 2.85
                             9 3.29  30 3.29  38 3.29  45 3.29  27 3.29  30 3.29
  42  0.375  0.625  0.250-   3 2.85  13 2.85  16 2.85  18 2.85  26 2.85  29 2.85  33 2.85  57 2.85
                            39 3.29  45 3.29  46 3.29  47 3.29  27 3.29  39 3.29
  43  0.875  0.875  0.750-   2 2.85   7 2.85  11 2.85  17 2.85  22 2.85  23 2.85  28 2.85  40 2.85
                            38 3.29  30 3.29  51 3.29  52 3.29  53 3.29  38 3.29
  44  0.250  0.250  0.500-   1 2.85   9 2.85  12 2.85  32 2.85  35 2.85  36 2.85  46 2.85  61 2.85
                            56 3.29  20 3.29  56 3.29
  45  0.125  0.625  0.250-   8 2.85  11 2.85  13 2.85  16 2.85  23 2.85  29 2.85  33 2.85  50 2.85
                            41 3.29  42 3.29  32 3.29  54 3.29
  46  0.375  0.375  0.250-  13 2.85  15 2.85  18 2.85  33 2.85  44 2.85  56 2.85  57 2.85  60 2.85
                            35 3.29  42 3.29  32 3.29
  47  0.625  0.625  0.250-   3 2.85  17 2.85  18 2.85  26 2.85  40 2.85  49 2.85  57 2.85  58 2.85
                            54 3.29  42 3.29  21 3.29  21 3.29
  48  0.625  0.125  0.250-  15 2.85  19 2.85  22 2.85  25 2.85  28 2.85  37 2.85  59 2.85  60 2.85
                            35 3.29  24 3.29  64 3.29  64 3.29
  49  0.750  0.500  0.000-   4 2.85  14 2.85  21 2.85  34 2.85  47 2.85  51 2.85  54 2.85  63 2.85
                            37 3.29  58 3.29  40 3.29  58 3.29
  50  0.000  0.500  0.500-   1 2.85   4 2.85  10 2.85  32 2.85  45 2.85  51 2.85  54 2.85  63 2.85
                            58 3.29  20 3.29
  51  0.875  0.625  0.750-   8 2.85  11 2.85  17 2.85  23 2.85  40 2.85  49 2.85  50 2.85  58 2.85
                            43 3.29  54 3.29  21 3.29  54 3.29
  52  0.625  0.875  0.750-   3 2.85  17 2.85  19 2.85  22 2.85  25 2.85  26 2.85  28 2.85  40 2.85
                            21 3.29  43 3.29  62 3.29  64 3.29
  53  0.875  0.125  0.750-   2 2.85   7 2.85  20 2.85  22 2.85  28 2.85  31 2.85  37 2.85  59 2.85
                            43 3.29  24 3.29  61 3.29  64 3.29  24 3.29
  54  0.875  0.625  0.250-   8 2.85  11 2.85  17 2.85  23 2.85  40 2.85  49 2.85  50 2.85  58 2.85
                            38 3.29  45 3.29  51 3.29  47 3.29  63 3.29  51 3.29
  55  0.250  0.000  0.000-   9 2.85  27 2.85  30 2.85  35 2.85  36 2.85  41 2.85  61 2.85  62 2.85
                            19 3.29  56 3.29
  56  0.250  0.250  0.000-   1 2.85   9 2.85  12 2.85  32 2.85  35 2.85  36 2.85  46 2.85  61 2.85
                            44 3.29  31 3.29  55 3.29  60 3.29  33 3.29  44 3.29
  57  0.500  0.500  0.500-  12 2.85  14 2.85  21 2.85  34 2.85  39 2.85  42 2.85  46 2.85  47 2.85
                            58 3.29
  58  0.750  0.500  0.500-   4 2.85  14 2.85  21 2.85  34 2.85  47 2.85  51 2.85  54 2.85  63 2.85
                            50 3.29  57 3.29  59 3.29  49 3.29  49 3.29
  59  0.750  0.250  0.500-   4 2.85  14 2.85  24 2.85  34 2.85  48 2.85  53 2.85  63 2.85  64 2.85
                            20 3.29  58 3.29  37 3.29  28 3.29  37 3.29
  60  0.500  0.250  0.000-  12 2.85  14 2.85  34 2.85  35 2.85  36 2.85  46 2.85  48 2.85  64 2.85
                            37 3.29  56 3.29  19 3.29
  61  0.125  0.125  0.750-   2 2.85   5 2.85   7 2.85  20 2.85  31 2.85  44 2.85  55 2.85  56 2.85
                            53 3.29  36 3.29  30 3.29
  62  0.375  0.875  0.750-   3 2.85   5 2.85  16 2.85  19 2.85  25 2.85  26 2.85  29 2.85  55 2.85
                            30 3.29  36 3.29  39 3.29  52 3.29  27 3.29  27 3.29
  63  0.875  0.375  0.250-   8 2.85  20 2.85  31 2.85  37 2.85  49 2.85  50 2.85  58 2.85  59 2.85
                            54 3.29  32 3.29  24 3.29
  64  0.625  0.125  0.750-  15 2.85  19 2.85  22 2.85  25 2.85  28 2.85  37 2.85  59 2.85  60 2.85
                            48 3.29  52 3.29  53 3.29  36 3.29  34 3.29  48 3.29
 
  LATTYP: Found a simple tetragonal cell.
 ALAT       =    13.1600000000
 C/A-ratio  =     0.5000000000
  
  Lattice vectors:
  
 A1 = (  13.1600000000,   0.0000000000,   0.0000000000)
 A2 = (   0.0000000000,  13.1600000000,   0.0000000000)
 A3 = (   0.0000000000,   0.0000000000,   6.5800000000)


Analysis of symmetry for initial positions (statically):
=====================================================================
 Subroutine PRICEL returns:
 Original cell was already a primitive cell.
 

 Routine SETGRP: Setting up the symmetry group for a 
 simple tetragonal supercell.


 Subroutine GETGRP returns: Found  1 space group operations
 (whereof  1 operations were pure point group operations)
 out of a pool of 16 trial point group operations.


The static configuration has the point symmetry C_1 .


Analysis of symmetry for dynamics (positions and initial velocities):
=====================================================================
 Subroutine PRICEL returns:
 Original cell was already a primitive cell.
 

 Routine SETGRP: Setting up the symmetry group for a 
 simple tetragonal supercell.


 Subroutine GETGRP returns: Found  1 space group operations
 (whereof  1 operations were pure point group operations)
 out of a pool of 16 trial point group operations.


The dynamic configuration has the point symmetry C_1 .


 Subroutine INISYM returns: Found  1 space group operations
 (whereof  1 operations are pure point group operations),
 and found     1 'primitive' translations


----------------------------------------------------------------------------------------

                                     Primitive cell                                     

  volume of cell :    1139.5612

  direct lattice vectors                    reciprocal lattice vectors
    13.160000000  0.000000000  0.000000000     0.075987842  0.000000000  0.000000000
     0.000000000 13.160000000  0.000000000     0.000000000  0.075987842  0.000000000
     0.000000000  0.000000000  6.580000000     0.000000000  0.000000000  0.151975684

  length of vectors
    13.160000000 13.160000000  6.580000000     0.075987842  0.075987842  0.151975684

  position of ions in fractional coordinates (direct lattice)
     0.125000000  0.375000000  0.750000000
     0.000000000  0.000000000  0.500000000
     0.500000000  0.750000000  0.500000000
     0.875000000  0.375000000  0.750000000
     0.250000000  0.000000000  0.500000000
     0.625000000  0.875000000  0.250000000
     0.000000000  0.000000000  0.000000000
     0.000000000  0.500000000  0.000000000
     0.125000000  0.125000000  0.250000000
     0.125000000  0.625000000  0.750000000
     0.000000000  0.750000000  0.500000000
     0.375000000  0.375000000  0.750000000
     0.250000000  0.500000000  0.500000000
     0.625000000  0.375000000  0.250000000
     0.500000000  0.250000000  0.500000000
     0.250000000  0.750000000  0.000000000
     0.750000000  0.750000000  0.500000000
     0.500000000  0.500000000  0.000000000
     0.500000000  0.000000000  0.000000000
     0.000000000  0.250000000  0.500000000
     0.625000000  0.625000000  0.750000000
     0.750000000  0.000000000  0.000000000
     0.000000000  0.750000000  0.000000000
     0.875000000  0.125000000  0.250000000
     0.500000000  0.000000000  0.500000000
     0.500000000  0.750000000  0.000000000
     0.375000000  0.875000000  0.250000000
     0.750000000  0.000000000  0.500000000
     0.250000000  0.750000000  0.500000000
     0.125000000  0.875000000  0.750000000
     0.000000000  0.250000000  0.000000000
     0.125000000  0.375000000  0.250000000
     0.250000000  0.500000000  0.000000000
     0.625000000  0.375000000  0.750000000
     0.375000000  0.125000000  0.250000000
     0.375000000  0.125000000  0.750000000
     0.750000000  0.250000000  0.000000000
     0.875000000  0.875000000  0.250000000
     0.375000000  0.625000000  0.750000000
     0.750000000  0.750000000  0.000000000
     0.125000000  0.875000000  0.250000000
     0.375000000  0.625000000  0.250000000
     0.875000000  0.875000000  0.750000000
     0.250000000  0.250000000  0.500000000
     0.125000000  0.625000000  0.250000000
     0.375000000  0.375000000  0.250000000
     0.625000000  0.625000000  0.250000000
     0.625000000  0.125000000  0.250000000
     0.750000000  0.500000000  0.000000000
     0.000000000  0.500000000  0.500000000
     0.875000000  0.625000000  0.750000000
     0.625000000  0.875000000  0.750000000
     0.875000000  0.125000000  0.750000000
     0.875000000  0.625000000  0.250000000
     0.250000000  0.000000000  0.000000000
     0.250000000  0.250000000  0.000000000
     0.500000000  0.500000000  0.500000000
     0.750000000  0.500000000  0.500000000
     0.750000000  0.250000000  0.500000000
     0.500000000  0.250000000  0.000000000
     0.125000000  0.125000000  0.750000000
     0.375000000  0.875000000  0.750000000
     0.875000000  0.375000000  0.250000000
     0.625000000  0.125000000  0.750000000

  ion indices of the primitive-cell ions
   primitive index   ion index
                 1           1
                 2           2
                 3           3
                 4           4
                 5           5
                 6           6
                 7           7
                 8           8
                 9           9
                10          10
                11          11
                12          12
                13          13
                14          14
                15          15
                16          16
                17          17
                18          18
                19          19
                20          20
                21          21
                22          22
                23          23
                24          24
                25          25
                26          26
                27          27
                28          28
                29          29
                30          30
                31          31
                32          32
                33          33
                34          34
                35          35
                36          36
                37          37
                38          38
                39          39
                40          40
                41          41
                42          42
                43          43
                44          44
                45          45
                46          46
                47          47
                48          48
                49          49
                50          50
                51          51
                52          52
                53          53
                54          54
                55          55
                56          56
                57          57
                58          58
                59          59
                60          60
                61          61
                62          62
                63          63
                64          64

----------------------------------------------------------------------------------------

 
 
 KPOINTS: K-Spacing Value to Generate K-Mesh: 0.03

Automatic generation of k-mesh.
 Grid dimensions read from file:
 generate k-points for:    3    3    5

 Generating k-lattice:

  Cartesian coordinates                     Fractional coordinates (reciprocal lattice)
     0.025329281  0.000000000  0.000000000     0.333333333  0.000000000  0.000000000
     0.000000000  0.025329281  0.000000000     0.000000000  0.333333333  0.000000000
     0.000000000  0.000000000  0.030395137     0.000000000  0.000000000  0.200000000

  Length of vectors
     0.025329281  0.025329281  0.030395137

  Shift w.r.t. Gamma in fractional coordinates (k-lattice)
     0.000000000  0.000000000  0.000000000

 
 Subroutine IBZKPT returns following result:
 ===========================================
 
 Found     23 irreducible k-points:
 
 Following reciprocal coordinates:
            Coordinates               Weight
  0.000000  0.000000  0.000000      1.000000
  0.333333  0.000000  0.000000      2.000000
  0.000000  0.333333  0.000000      2.000000
  0.333333  0.333333  0.000000      2.000000
 -0.333333  0.333333  0.000000      2.000000
  0.000000  0.000000  0.200000      2.000000
  0.333333  0.000000  0.200000      2.000000
  0.000000  0.333333  0.200000      2.000000
 -0.333333  0.000000  0.200000      2.000000
  0.000000 -0.333333  0.200000      2.000000
  0.333333  0.333333  0.200000      2.000000
 -0.333333  0.333333  0.200000      2.000000
 -0.333333 -0.333333  0.200000      2.000000
  0.333333 -0.333333  0.200000      2.000000
  0.000000  0.000000  0.400000      2.000000
  0.333333  0.000000  0.400000      2.000000
  0.000000  0.333333  0.400000      2.000000
 -0.333333  0.000000  0.400000      2.000000
  0.000000 -0.333333  0.400000      2.000000
  0.333333  0.333333  0.400000      2.000000
 -0.333333  0.333333  0.400000      2.000000
 -0.333333 -0.333333  0.400000      2.000000
  0.333333 -0.333333  0.400000      2.000000
 
 Following cartesian coordinates:
            Coordinates               Weight
  0.000000  0.000000  0.000000      1.000000
  0.025329  0.000000  0.000000      2.000000
  0.000000  0.025329  0.000000      2.000000
  0.025329  0.025329  0.000000      2.000000
 -0.025329  0.025329  0.000000      2.000000
  0.000000  0.000000  0.030395      2.000000
  0.025329  0.000000  0.030395      2.000000
  0.000000  0.025329  0.030395      2.000000
 -0.025329  0.000000  0.030395      2.000000
  0.000000 -0.025329  0.030395      2.000000
  0.025329  0.025329  0.030395      2.000000
 -0.025329  0.025329  0.030395      2.000000
 -0.025329 -0.025329  0.030395      2.000000
  0.025329 -0.025329  0.030395      2.000000
  0.000000  0.000000  0.060790      2.000000
  0.025329  0.000000  0.060790      2.000000
  0.000000  0.025329  0.060790      2.000000
 -0.025329  0.000000  0.060790      2.000000
  0.000000 -0.025329  0.060790      2.000000
  0.025329  0.025329  0.060790      2.000000
 -0.025329  0.025329  0.060790      2.000000
 -0.025329 -0.025329  0.060790      2.000000
  0.025329 -0.025329  0.060790      2.000000
 


--------------------------------------------------------------------------------------------------------




 Dimension of arrays:
   k-points           NKPTS =     23   k-points in BZ     NKDIM =     23   number of bands    NBANDS=    508
   number of dos      NEDOS =    301   number of ions     NIONS =     64
   non local maximal  LDIM  =      6   non local SUM 2l+1 LMDIM =     18
   total plane-waves  NPLWV = 176400
   max r-space proj   IRMAX =      1   max aug-charges    IRDMAX=   9034
   dimension x,y,z NGX =    70 NGY =   70 NGZ =   36
   dimension x,y,z NGXF=   140 NGYF=  140 NGZF=   72
   support grid    NGXF=   140 NGYF=  140 NGZF=   72
   ions per type =              18  13  10  23
   NGX,Y,Z   is equivalent  to a cutoff of   8.84,  8.84,  9.10 a.u.
   NGXF,Y,Z  is equivalent  to a cutoff of  17.69, 17.69, 18.19 a.u.

 SYSTEM =  unknown system                          
 POSCAR =  Nb-Mo-Ta-W alloy                        

 Startparameter for this run:
   NWRITE =      2    write-flag & timer
   PREC   = accura    normal or accurate (medium, high low for compatibility)
   ISTART =      0    job   : 0-new  1-cont  2-samecut
   ICHARG =      2    charge: 1-file 2-atom 10-const
   ISPIN  =      1    spin polarized calculation?
   LNONCOLLINEAR =      F non collinear calculations
   LSORBIT =      F    spin-orbit coupling
   INIWAV =      1    electr: 0-lowe 1-rand  2-diag
   LASPH  =      F    aspherical Exc in radial PAW
 Electronic Relaxation 1
   ENCUT  =  250.0 eV  18.37 Ry    4.29 a.u.  16.97 16.97  8.48*2*pi/ulx,y,z
   ENINI  =  250.0     initial cutoff
   ENAUG  =  455.7 eV  augmentation charge cutoff
   NELM   =     80;   NELMIN=  2; NELMDL= -5     # of ELM steps 
   EDIFF  = 0.1E-07   stopping-criterion for ELM
   LREAL  =      F    real-space projection
   NLSPLINE    = F    spline interpolate recip. space projectors
   LCOMPAT=      F    compatible to vasp.4.4
   GGA_COMPAT  = T    GGA compatible to vasp.4.4-vasp.4.6
   LMAXPAW     = -100 max onsite density
   LMAXMIX     =    2 max onsite mixed and CHGCAR
   VOSKOWN=      0    Vosko Wilk Nusair interpolation
   ROPT   =    0.00000   0.00000   0.00000   0.00000
 Ionic relaxation
   EDIFFG = -.1E-01   stopping-criterion for IOM
   NSW    =      0    number of steps for IOM
   NBLOCK =      1;   KBLOCK =      1    inner block; outer block 
   IBRION =     -1    ionic relax: 0-MD 1-quasi-New 2-CG
   NFREE  =      0    steps in history (QN), initial steepest desc. (CG)
   ISIF   =      2    stress and relaxation
   IWAVPR =     10    prediction:  0-non 1-charg 2-wave 3-comb
   ISYM   =      2    0-nonsym 1-usesym 2-fastsym
   LCORR  =      T    Harris-Foulkes like correction to forces

   POTIM  = 0.5000    time-step for ionic-motion
   TEIN   =    0.0    initial temperature
   TEBEG  =    0.0;   TEEND  =   0.0 temperature during run
   SMASS  =  -3.00    Nose mass-parameter (am)
   estimated Nose-frequenzy (Omega)   =  0.10E-29 period in steps = 0.13E+47 mass=  -0.396E-26a.u.
   SCALEE = 1.0000    scale energy and forces
   NPACO  =    256;   APACO  = 10.0  distance and # of slots for P.C.
   PSTRESS=    0.0 pullay stress

  Mass of Ions in am
   POMASS =  92.91 95.94180.95183.85
  Ionic Valenz
   ZVAL   =  13.00 14.00 11.00 14.00
  Atomic Wigner-Seitz radii
   RWIGS  =  -1.00 -1.00 -1.00 -1.00
  virtual crystal weights 
   VCA    =   1.00  1.00  1.00  1.00
   NELECT =     848.0000    total number of electrons
   NUPDOWN=      -1.0000    fix difference up-down

 DOS related values:
   EMIN   =  10.00;   EMAX   =-10.00  energy-range for DOS
   EFERMI =   0.00
   ISMEAR =     0;   SIGMA  =   0.02  broadening in eV -4-tet -1-fermi 0-gaus

 Electronic relaxation 2 (details)
   IALGO  =     38    algorithm
   LDIAG  =      T    sub-space diagonalisation (order eigenvalues)
   LSUBROT=      F    optimize rotation matrix (better conditioning)
   TURBO    =      0    0=normal 1=particle mesh
   IRESTART =      0    0=no restart 2=restart with 2 vectors
   NREBOOT  =      0    no. of reboots
   NMIN     =      0    reboot dimension
   EREF     =   0.00    reference energy to select bands
   IMIX   =      4    mixing-type and parameters
     AMIX     =   0.40;   BMIX     =  1.00
     AMIX_MAG =   1.60;   BMIX_MAG =  1.00
     AMIN     =   0.10
     WC   =   100.;   INIMIX=   1;  MIXPRE=   1;  MAXMIX= -45

 Intra band minimization:
   WEIMIN = 0.0000     energy-eigenvalue tresh-hold
   EBREAK =  0.49E-11  absolut break condition
   DEPER  =   0.30     relativ break condition  

   TIME   =   0.40     timestep for ELM

  volume/ion in A,a.u.               =      17.81       120.16
  Fermi-wavevector in a.u.,A,eV,Ry     =   1.483523  2.803452 29.944245  2.200840
  Thomas-Fermi vector in A             =   2.597174
 
 Write flags
   LWAVE        =      F    write WAVECAR
   LDOWNSAMPLE  =      F    k-point downsampling of WAVECAR
   LCHARG       =      F    write CHGCAR
   LVTOT        =      F    write LOCPOT, total local potential
   LVHAR        =      F    write LOCPOT, Hartree potential only
   LELF         =      F    write electronic localiz. function (ELF)
   LORBIT       =      0    0 simple, 1 ext, 2 COOP (PROOUT), +10 PAW based schemes


 Dipole corrections
   LMONO  =      F    monopole corrections only (constant potential shift)
   LDIPOL =      F    correct potential (dipole corrections)
   IDIPOL =      0    1-x, 2-y, 3-z, 4-all directions 
   EPSILON=  1.0000000 bulk dielectric constant

 Core level calculations are selected ICORELEVEL =  1
 Exchange correlation treatment:
   GGA     =    PE    GGA type
   LEXCH   =     8    internal setting for exchange type
   LIBXC   =     F    Libxc                    
   VOSKOWN =     0    Vosko Wilk Nusair interpolation
   LHFCALC =     F    Hartree Fock is set to
   LHFONE  =     F    Hartree Fock one center treatment
   AEXX    =    0.0000 exact exchange contribution

 Linear response parameters
   LEPSILON=     F    determine dielectric tensor
   LRPA    =     F    only Hartree local field effects (RPA)
   LNABLA  =     F    use nabla operator in PAW spheres
   LVEL    =     F    velocity operator in full k-point grid
   CSHIFT  =0.1000    complex shift for real part using Kramers Kronig
   OMEGAMAX=  -1.0    maximum frequency
   DEG_THRESHOLD= 0.2000000E-02 threshold for treating states as degnerate
   RTIME   =   -0.100 relaxation time in fs
  (WPLASMAI=    0.000 imaginary part of plasma frequency in eV, 0.658/RTIME)
   DFIELD  = 0.0000000 0.0000000 0.0000000 field for delta impulse in time
 
  Optional k-point grid parameters
   LKPOINTS_OPT  =     F    use optional k-point grid
   KPOINTS_OPT_MODE=     1    mode for optional k-point grid
 
 Orbital magnetization related:
   ORBITALMAG=     F  switch on orbital magnetization
   LCHIMAG   =     F  perturbation theory with respect to B field
   DQ        =  0.001000  dq finite difference perturbation B field
   LLRAUG    =     F  two centre corrections for induced B field



--------------------------------------------------------------------------------------------------------


 Static calculation
 charge density and potential will be updated during run
 non-spin polarized calculation
 Variant of blocked Davidson
 Davidson routine will perform the subspace rotation
 perform sub-space diagonalisation
    after iterative eigenvector-optimisation
 modified Broyden-mixing scheme, WC =      100.0
 initial mixing is a Kerker type mixing with AMIX =  0.4000 and BMIX =      1.0000
 Hartree-type preconditioning will be used
 using additional bands           84
 reciprocal scheme for non local part
 use partial core corrections
 calculate Harris-corrections to forces 
   (improved forces if not selfconsistent)
 use gradient corrections 
 use of overlap-Matrix (Vanderbilt PP)
 Gauss-broadening in eV      SIGMA  =   0.02


--------------------------------------------------------------------------------------------------------


  energy-cutoff  :      250.00
  volume of cell :     1139.56
      direct lattice vectors                 reciprocal lattice vectors
    13.160000000  0.000000000  0.000000000     0.075987842  0.000000000  0.000000000
     0.000000000 13.160000000  0.000000000     0.000000000  0.075987842  0.000000000
     0.000000000  0.000000000  6.580000000     0.000000000  0.000000000  0.151975684

  length of vectors
    13.160000000 13.160000000  6.580000000     0.075987842  0.075987842  0.151975684


 
 k-points in units of 2pi/SCALE and weight: K-Spacing Value to Generate K-Mesh: 0.03
   0.00000000  0.00000000  0.00000000       0.022
   0.02532928  0.00000000  0.00000000       0.044
   0.00000000  0.02532928  0.00000000       0.044
   0.02532928  0.02532928  0.00000000       0.044
  -0.02532928  0.02532928  0.00000000       0.044
   0.00000000  0.00000000  0.03039514       0.044
   0.02532928  0.00000000  0.03039514       0.044
   0.00000000  0.02532928  0.03039514       0.044
  -0.02532928  0.00000000  0.03039514       0.044
   0.00000000 -0.02532928  0.03039514       0.044
   0.02532928  0.02532928  0.03039514       0.044
  -0.02532928  0.02532928  0.03039514       0.044
  -0.02532928 -0.02532928  0.03039514       0.044
   0.02532928 -0.02532928  0.03039514       0.044
   0.00000000  0.00000000  0.06079027       0.044
   0.02532928  0.00000000  0.06079027       0.044
   0.00000000  0.02532928  0.06079027       0.044
  -0.02532928  0.00000000  0.06079027       0.044
   0.00000000 -0.02532928  0.06079027       0.044
   0.02532928  0.02532928  0.06079027       0.044
  -0.02532928  0.02532928  0.06079027       0.044
  -0.02532928 -0.02532928  0.06079027       0.044
   0.02532928 -0.02532928  0.06079027       0.044
 
 k-points in reciprocal lattice and weights: K-Spacing Value to Generate K-Mesh: 0.03
   0.00000000  0.00000000  0.00000000       0.022
   0.33333333  0.00000000  0.00000000       0.044
   0.00000000  0.33333333  0.00000000       0.044
   0.33333333  0.33333333  0.00000000       0.044
  -0.33333333  0.33333333  0.00000000       0.044
   0.00000000  0.00000000  0.20000000       0.044
   0.33333333  0.00000000  0.20000000       0.044
   0.00000000  0.33333333  0.20000000       0.044
  -0.33333333  0.00000000  0.20000000       0.044
   0.00000000 -0.33333333  0.20000000       0.044
   0.33333333  0.33333333  0.20000000       0.044
  -0.33333333  0.33333333  0.20000000       0.044
  -0.33333333 -0.33333333  0.20000000       0.044
   0.33333333 -0.33333333  0.20000000       0.044
   0.00000000  0.00000000  0.40000000       0.044
   0.33333333  0.00000000  0.40000000       0.044
   0.00000000  0.33333333  0.40000000       0.044
  -0.33333333  0.00000000  0.40000000       0.044
   0.00000000 -0.33333333  0.40000000       0.044
   0.33333333  0.33333333  0.40000000       0.044
  -0.33333333  0.33333333  0.40000000       0.044
  -0.33333333 -0.33333333  0.40000000       0.044
   0.33333333 -0.33333333  0.40000000       0.044
 
 position of ions in fractional coordinates (direct lattice) 
   0.12500000  0.37500000  0.75000000
   0.00000000  0.00000000  0.50000000
   0.50000000  0.75000000  0.50000000
   0.87500000  0.37500000  0.75000000
   0.25000000  0.00000000  0.50000000
   0.62500000  0.87500000  0.25000000
   0.00000000  0.00000000  0.00000000
   0.00000000  0.50000000  0.00000000
   0.12500000  0.12500000  0.25000000
   0.12500000  0.62500000  0.75000000
   0.00000000  0.75000000  0.50000000
   0.37500000  0.37500000  0.75000000
   0.25000000  0.50000000  0.50000000
   0.62500000  0.37500000  0.25000000
   0.50000000  0.25000000  0.50000000
   0.25000000  0.75000000  0.00000000
   0.75000000  0.75000000  0.50000000
   0.50000000  0.50000000  0.00000000
   0.50000000  0.00000000  0.00000000
   0.00000000  0.25000000  0.50000000
   0.62500000  0.62500000  0.75000000
   0.75000000  0.00000000  0.00000000
   0.00000000  0.75000000  0.00000000
   0.87500000  0.12500000  0.25000000
   0.50000000  0.00000000  0.50000000
   0.50000000  0.75000000  0.00000000
   0.37500000  0.87500000  0.25000000
   0.75000000  0.00000000  0.50000000
   0.25000000  0.75000000  0.50000000
   0.12500000  0.87500000  0.75000000
   0.00000000  0.25000000  0.00000000
   0.12500000  0.37500000  0.25000000
   0.25000000  0.50000000  0.00000000
   0.62500000  0.37500000  0.75000000
   0.37500000  0.12500000  0.25000000
   0.37500000  0.12500000  0.75000000
   0.75000000  0.25000000  0.00000000
   0.87500000  0.87500000  0.25000000
   0.37500000  0.62500000  0.75000000
   0.75000000  0.75000000  0.00000000
   0.12500000  0.87500000  0.25000000
   0.37500000  0.62500000  0.25000000
   0.87500000  0.87500000  0.75000000
   0.25000000  0.25000000  0.50000000
   0.12500000  0.62500000  0.25000000
   0.37500000  0.37500000  0.25000000
   0.62500000  0.62500000  0.25000000
   0.62500000  0.12500000  0.25000000
   0.75000000  0.50000000  0.00000000
   0.00000000  0.50000000  0.50000000
   0.87500000  0.62500000  0.75000000
   0.62500000  0.87500000  0.75000000
   0.87500000  0.12500000  0.75000000
   0.87500000  0.62500000  0.25000000
   0.25000000  0.00000000  0.00000000
   0.25000000  0.25000000  0.00000000
   0.50000000  0.50000000  0.50000000
   0.75000000  0.50000000  0.50000000
   0.75000000  0.25000000  0.50000000
   0.50000000  0.25000000  0.00000000
   0.12500000  0.12500000  0.75000000
   0.37500000  0.87500000  0.75000000
   0.87500000  0.37500000  0.25000000
   0.62500000  0.12500000  0.75000000
 
 position of ions in cartesian coordinates  (Angst):
   1.64500000  4.93500000  4.93500000
   0.00000000  0.00000000  3.29000000
   6.58000000  9.87000000  3.29000000
  11.51500000  4.93500000  4.93500000
   3.29000000  0.00000000  3.29000000
   8.22500000 11.51500000  1.64500000
   0.00000000  0.00000000  0.00000000
   0.00000000  6.58000000  0.00000000
   1.64500000  1.64500000  1.64500000
   1.64500000  8.22500000  4.93500000
   0.00000000  9.87000000  3.29000000
   4.93500000  4.93500000  4.93500000
   3.29000000  6.58000000  3.29000000
   8.22500000  4.93500000  1.64500000
   6.58000000  3.29000000  3.29000000
   3.29000000  9.87000000  0.00000000
   9.87000000  9.87000000  3.29000000
   6.58000000  6.58000000  0.00000000
   6.58000000  0.00000000  0.00000000
   0.00000000  3.29000000  3.29000000
   8.22500000  8.22500000  4.93500000
   9.87000000  0.00000000  0.00000000
   0.00000000  9.87000000  0.00000000
  11.51500000  1.64500000  1.64500000
   6.58000000  0.00000000  3.29000000
   6.58000000  9.87000000  0.00000000
   4.93500000 11.51500000  1.64500000
   9.87000000  0.00000000  3.29000000
   3.29000000  9.87000000  3.29000000
   1.64500000 11.51500000  4.93500000
   0.00000000  3.29000000  0.00000000
   1.64500000  4.93500000  1.64500000
   3.29000000  6.58000000  0.00000000
   8.22500000  4.93500000  4.93500000
   4.93500000  1.64500000  1.64500000
   4.93500000  1.64500000  4.93500000
   9.87000000  3.29000000  0.00000000
  11.51500000 11.51500000  1.64500000
   4.93500000  8.22500000  4.93500000
   9.87000000  9.87000000  0.00000000
   1.64500000 11.51500000  1.64500000
   4.93500000  8.22500000  1.64500000
  11.51500000 11.51500000  4.93500000
   3.29000000  3.29000000  3.29000000
   1.64500000  8.22500000  1.64500000
   4.93500000  4.93500000  1.64500000
   8.22500000  8.22500000  1.64500000
   8.22500000  1.64500000  1.64500000
   9.87000000  6.58000000  0.00000000
   0.00000000  6.58000000  3.29000000
  11.51500000  8.22500000  4.93500000
   8.22500000 11.51500000  4.93500000
  11.51500000  1.64500000  4.93500000
  11.51500000  8.22500000  1.64500000
   3.29000000  0.00000000  0.00000000
   3.29000000  3.29000000  0.00000000
   6.58000000  6.58000000  3.29000000
   9.87000000  6.58000000  3.29000000
   9.87000000  3.29000000  3.29000000
   6.58000000  3.29000000  0.00000000
   1.64500000  1.64500000  4.93500000
   4.93500000 11.51500000  4.93500000
  11.51500000  4.93500000  1.64500000
   8.22500000  1.64500000  4.93500000
 


--------------------------------------------------------------------------------------------------------


 k-point   1 :   0.0000 0.0000 0.0000  plane waves:   10181
 k-point   2 :   0.3333 0.0000 0.0000  plane waves:   10238
 k-point   3 :   0.0000 0.3333 0.0000  plane waves:   10238
 k-point   4 :   0.3333 0.3333 0.0000  plane waves:   10248
 k-point   5 :  -0.3333 0.3333 0.0000  plane waves:   10248
 k-point   6 :   0.0000 0.0000 0.2000  plane waves:   10193
 k-point   7 :   0.3333 0.0000 0.2000  plane waves:   10246
 k-point   8 :   0.0000 0.3333 0.2000  plane waves:   10246
 k-point   9 :  -0.3333 0.0000 0.2000  plane waves:   10246
 k-point  10 :   0.0000-0.3333 0.2000  plane waves:   10246
 k-point  11 :   0.3333 0.3333 0.2000  plane waves:   10238
 k-point  12 :  -0.3333 0.3333 0.2000  plane waves:   10238
 k-point  13 :  -0.3333-0.3333 0.2000  plane waves:   10238
 k-point  14 :   0.3333-0.3333 0.2000  plane waves:   10238
 k-point  15 :   0.0000 0.0000 0.4000  plane waves:   10201
 k-point  16 :   0.3333 0.0000 0.4000  plane waves:   10223
 k-point  17 :   0.0000 0.3333 0.4000  plane waves:   10223
 k-point  18 :  -0.3333 0.0000 0.4000  plane waves:   10223
 k-point  19 :   0.0000-0.3333 0.4000  plane waves:   10223
 k-point  20 :   0.3333 0.3333 0.4000  plane waves:   10193
 k-point  21 :  -0.3333 0.3333 0.4000  plane waves:   10193
 k-point  22 :  -0.3333-0.3333 0.4000  plane waves:   10193
 k-point  23 :   0.3333-0.3333 0.4000  plane waves:   10193

 maximum and minimum number of plane-waves per node :       880      830

 maximum number of plane-waves:     10248
 maximum index in each direction: 
   IXMAX=   17   IYMAX=   17   IZMAX=    8
   IXMIN=  -17   IYMIN=  -17   IZMIN=   -8


 parallel 3D FFT for wavefunctions:
    minimum data exchange during FFTs selected (reduces bandwidth)
 parallel 3D FFT for charge:
    minimum data exchange during FFTs selected (reduces bandwidth)


 total amount of memory used by VASP MPI-rank0    91701. kBytes
=======================================================================

   base      :      30000. kBytes
   nonl-proj :      12216. kBytes
   fftplans  :       1504. kBytes
   grid      :       2835. kBytes
   one-center:         93. kBytes
   wavefun   :      45053. kBytes
 
     INWAV:  cpu time      0.0000: real time      0.0000
 Broyden mixing: mesh for mixing (old mesh)
   NGX = 33   NGY = 33   NGZ = 17
  (NGX  =140   NGY  =140   NGZ  = 72)
  gives a total of  18513 points

 initial charge density was supplied:
 charge density of overlapping atoms calculated
 number of electron     848.0000000 magnetization 
 keeping initial charge density in first step


--------------------------------------------------------------------------------------------------------


 Maximum index for augmentation-charges          505 (set IRDMAX)


--------------------------------------------------------------------------------------------------------


 First call to EWALD:  gamma=   0.170
 Maximum number of real-space cells 2x 2x 4
 Maximum number of reciprocal cells 3x 3x 2

    FEWALD:  cpu time      0.1515: real time      0.1521


--------------------------------------- Iteration      1(   1)  ---------------------------------------


    POTLOK:  cpu time      0.2177: real time      0.4270
    SETDIJ:  cpu time      0.0049: real time      0.0052
     EDDAV:  cpu time     57.5742: real time     58.6795
       DOS:  cpu time      0.2270: real time      0.2619
    --------------------------------------------
      LOOP:  cpu time     58.0239: real time     59.3736

 eigenvalue-minimisations  : 23664
 total energy-change (2. order) : 0.8484021E+04  (-0.3299298E+05)
 number of electron     848.0000000 magnetization 
 augmentation part      848.0000000 magnetization 

 Free energy of the ion-electron system (eV)
  ---------------------------------------------------
  alpha Z        PSCENC =      7288.33716058
  Ewald energy   TEWEN  =    -89653.37913052
  -Hartree energ DENC   =    -16957.80862600
  -exchange      EXHF   =         0.00000000
  -V(xc)+E(xc)   XCENC  =      3439.27625276
  PAW double counting   =     83549.14063429   -82282.85530563
  entropy T*S    EENTRO =        -0.00381671
  eigenvalues    EBANDS =     -2475.09654409
  atomic energy  EATOM  =    105576.41071507
  Solvation  Ediel_sol  =         0.00000000
  ---------------------------------------------------
  free energy    TOTEN  =      8484.02133976 eV

  energy without entropy =     8484.02515647  energy(sigma->0) =     8484.02324811


--------------------------------------------------------------------------------------------------------




--------------------------------------- Iteration      1(   2)  ---------------------------------------


     EDDAV:  cpu time     52.9799: real time     55.2442
       DOS:  cpu time      0.0715: real time      0.1348
    --------------------------------------------
      LOOP:  cpu time     53.0514: real time     55.3791

 eigenvalue-minimisations  : 23388
 total energy-change (2. order) :-0.8418291E+04  (-0.8176413E+04)
 number of electron     848.0000000 magnetization 
 augmentation part      848.0000000 magnetization 

 Free energy of the ion-electron system (eV)
  ---------------------------------------------------
  alpha Z        PSCENC =      7288.33716058
  Ewald energy   TEWEN  =    -89653.37913052
  -Hartree energ DENC   =    -16957.80862600
  -exchange      EXHF   =         0.00000000
  -V(xc)+E(xc)   XCENC  =      3439.27625276
  PAW double counting   =     83549.14063429   -82282.85530563
  entropy T*S    EENTRO =        -0.00694292
  eigenvalues    EBANDS =    -10893.38464199
  atomic energy  EATOM  =    105576.41071507
  Solvation  Ediel_sol  =         0.00000000
  ---------------------------------------------------
  free energy    TOTEN  =        65.73011565 eV

  energy without entropy =       65.73705857  energy(sigma->0) =       65.73358711


--------------------------------------------------------------------------------------------------------




--------------------------------------- Iteration      1(   3)  ---------------------------------------


     EDDAV:  cpu time     50.2144: real time     53.1694
       DOS:  cpu time      0.0069: real time      0.0069
    --------------------------------------------
      LOOP:  cpu time     50.2213: real time     53.1762

 eigenvalue-minimisations  : 34328
 total energy-change (2. order) :-0.7848831E+03  (-0.7358524E+03)
 number of electron     848.0000000 magnetization 
 augmentation part      848.0000000 magnetization 

 Free energy of the ion-electron system (eV)
  ---------------------------------------------------
  alpha Z        PSCENC =      7288.33716058
  Ewald energy   TEWEN  =    -89653.37913052
  -Hartree energ DENC   =    -16957.80862600
  -exchange      EXHF   =         0.00000000
  -V(xc)+E(xc)   XCENC  =      3439.27625276
  PAW double counting   =     83549.14063429   -82282.85530563
  entropy T*S    EENTRO =        -0.00813221
  eigenvalues    EBANDS =    -11678.26654862
  atomic energy  EATOM  =    105576.41071507
  Solvation  Ediel_sol  =         0.00000000
  ---------------------------------------------------
  free energy    TOTEN  =      -719.15298027 eV

  energy without entropy =     -719.14484806  energy(sigma->0) =     -719.14891416


--------------------------------------------------------------------------------------------------------




--------------------------------------- Iteration      1(   4)  ---------------------------------------


     EDDAV:  cpu time     69.9337: real time     75.0824
       DOS:  cpu time      0.4802: real time      0.5359
    --------------------------------------------
      LOOP:  cpu time     70.4139: real time     75.6184

 eigenvalue-minimisations  : 35128
 total energy-change (2. order) :-0.6064489E+02  (-0.5842789E+02)
 number of electron     848.0000000 magnetization 
 augmentation part      848.0000000 magnetization 

 Free energy of the ion-electron system (eV)
  ---------------------------------------------------
  alpha Z        PSCENC =      7288.33716058
  Ewald energy   TEWEN  =    -89653.37913052
  -Hartree energ DENC   =    -16957.80862600
  -exchange      EXHF   =         0.00000000
  -V(xc)+E(xc)   XCENC  =      3439.27625276
  PAW double counting   =     83549.14063429   -82282.85530563
  entropy T*S    EENTRO =        -0.00633495
  eigenvalues    EBANDS =    -11738.91323961
  atomic energy  EATOM  =    105576.41071507
  Solvation  Ediel_sol  =         0.00000000
  ---------------------------------------------------
  free energy    TOTEN  =      -779.79787400 eV

  energy without entropy =     -779.79153905  energy(sigma->0) =     -779.79470652


--------------------------------------------------------------------------------------------------------




--------------------------------------- Iteration      1(   5)  ---------------------------------------


     EDDAV:  cpu time     53.8146: real time     56.7465
       DOS:  cpu time      0.1353: real time      0.1357
    CHARGE:  cpu time      0.5124: real time      0.6024
    MIXING:  cpu time      0.0376: real time      0.0758
    --------------------------------------------
      LOOP:  cpu time     54.4999: real time     57.5605

 eigenvalue-minimisations  : 38376
 total energy-change (2. order) :-0.3833628E+01  (-0.3796308E+01)
 number of electron     847.9999788 magnetization 
 augmentation part      177.6289498 magnetization 

 Broyden mixing:
  rms(total) = 0.10756E+02    rms(broyden)= 0.10754E+02
  rms(prec ) = 0.11065E+02
  weight for this iteration     100.00

 Free energy of the ion-electron system (eV)
  ---------------------------------------------------
  alpha Z        PSCENC =      7288.33716058
  Ewald energy   TEWEN  =    -89653.37913052
  -Hartree energ DENC   =    -16957.80862600
  -exchange      EXHF   =         0.00000000
  -V(xc)+E(xc)   XCENC  =      3439.27625276
  PAW double counting   =     83549.14063429   -82282.85530563
  entropy T*S    EENTRO =        -0.00659587
  eigenvalues    EBANDS =    -11742.74660651
  atomic energy  EATOM  =    105576.41071507
  Solvation  Ediel_sol  =         0.00000000
  ---------------------------------------------------
  free energy    TOTEN  =      -783.63150181 eV

  energy without entropy =     -783.62490595  energy(sigma->0) =     -783.62820388


--------------------------------------------------------------------------------------------------------




--------------------------------------- Iteration      1(   6)  ---------------------------------------


    POTLOK:  cpu time      0.0207: real time      0.0210
    SETDIJ:  cpu time      0.0042: real time      0.0042
     EDDAV:  cpu time     61.2107: real time     65.3549
       DOS:  cpu time      0.3866: real time      0.3880
    CHARGE:  cpu time      0.6886: real time      0.6913
    MIXING:  cpu time      0.0005: real time      0.0005
    --------------------------------------------
      LOOP:  cpu time     62.3114: real time     66.4599

 eigenvalue-minimisations  : 28112
 total energy-change (2. order) : 0.2965535E+02  (-0.8894403E+01)
 number of electron     847.9999785 magnetization 
 augmentation part      184.3337420 magnetization 

 Broyden mixing:
  rms(total) = 0.39607E+01    rms(broyden)= 0.39599E+01
  rms(prec ) = 0.47001E+01
  weight for this iteration     100.00

 eigenvalues of (default mixing * dielectric matrix)
  average eigenvalue GAMMA=   1.4512
  1.4512

 Free energy of the ion-electron system (eV)
  ---------------------------------------------------
  alpha Z        PSCENC =      7288.33716058
  Ewald energy   TEWEN  =    -89653.37913052
  -Hartree energ DENC   =    -16023.60135037
  -exchange      EXHF   =         0.00000000
  -V(xc)+E(xc)   XCENC  =      3393.54481392
  PAW double counting   =     98591.96196851   -97443.18862579
  entropy T*S    EENTRO =        -0.00928274
  eigenvalues    EBANDS =    -12484.05241738
  atomic energy  EATOM  =    105576.41071507
  Solvation  Ediel_sol  =         0.00000000
  ---------------------------------------------------
  free energy    TOTEN  =      -753.97614872 eV

  energy without entropy =     -753.96686598  energy(sigma->0) =     -753.97150735


--------------------------------------------------------------------------------------------------------




--------------------------------------- Iteration      1(   7)  ---------------------------------------


    POTLOK:  cpu time      0.0138: real time      0.0140
    SETDIJ:  cpu time      0.0040: real time      0.0040
     EDDAV:  cpu time     31.3394: real time     32.4971
       DOS:  cpu time      0.4302: real time      0.5518
    CHARGE:  cpu time      0.5721: real time      0.6802
    MIXING:  cpu time      0.2828: real time      0.2839
    --------------------------------------------
      LOOP:  cpu time     32.6423: real time     34.0310

 eigenvalue-minimisations  : 33384
 total energy-change (2. order) :-0.2488218E+02  (-0.1066985E+02)
 number of electron     847.9999775 magnetization 
 augmentation part      184.3313640 magnetization 

 Broyden mixing:
  rms(total) = 0.28771E+01    rms(broyden)= 0.28743E+01
  rms(prec ) = 0.82066E+01
  weight for this iteration     100.00

 eigenvalues of (default mixing * dielectric matrix)
  average eigenvalue GAMMA=   1.0050
  1.5620  0.4479

 Free energy of the ion-electron system (eV)
  ---------------------------------------------------
  alpha Z        PSCENC =      7288.33716058
  Ewald energy   TEWEN  =    -89653.37913052
  -Hartree energ DENC   =    -15722.37234822
  -exchange      EXHF   =         0.00000000
  -V(xc)+E(xc)   XCENC  =      3376.16939785
  PAW double counting   =    107820.11351121  -106716.87218982
  entropy T*S    EENTRO =        -0.00891874
  eigenvalues    EBANDS =    -12747.25652275
  atomic energy  EATOM  =    105576.41071507
  Solvation  Ediel_sol  =         0.00000000
  ---------------------------------------------------
  free energy    TOTEN  =      -778.85832534 eV

  energy without entropy =     -778.84940660  energy(sigma->0) =     -778.85386597


--------------------------------------------------------------------------------------------------------




--------------------------------------- Iteration      1(   8)  ---------------------------------------


    POTLOK:  cpu time      0.0313: real time      0.0317
    SETDIJ:  cpu time      0.0046: real time      0.0047
     EDDAV:  cpu time     24.1060: real time     24.3554
       DOS:  cpu time      0.0074: real time      0.0074
    CHARGE:  cpu time      0.4439: real time      0.4454
    MIXING:  cpu time      0.0005: real time      0.0005
    --------------------------------------------
      LOOP:  cpu time     24.5937: real time     24.8450

 eigenvalue-minimisations  : 32968
 total energy-change (2. order) : 0.3448364E+02  (-0.7858620E+01)
 number of electron     847.9999783 magnetization 
 augmentation part      185.6836727 magnetization 

 Broyden mixing:
  rms(total) = 0.11261E+01    rms(broyden)= 0.11222E+01
  rms(prec ) = 0.19248E+01
  weight for this iteration     100.00

 eigenvalues of (default mixing * dielectric matrix)
  average eigenvalue GAMMA=   0.8810
  1.6401  0.7144  0.2886

 Free energy of the ion-electron system (eV)
  ---------------------------------------------------
  alpha Z        PSCENC =      7288.33716058
  Ewald energy   TEWEN  =    -89653.37913052
  -Hartree energ DENC   =    -15588.18626624
  -exchange      EXHF   =         0.00000000
  -V(xc)+E(xc)   XCENC  =      3370.46345439
  PAW double counting   =    110421.44349796  -109335.83325315
  entropy T*S    EENTRO =        -0.00885548
  eigenvalues    EBANDS =    -12823.62200709
  atomic energy  EATOM  =    105576.41071507
  Solvation  Ediel_sol  =         0.00000000
  ---------------------------------------------------
  free energy    TOTEN  =      -744.37468446 eV

  energy without entropy =     -744.36582898  energy(sigma->0) =     -744.37025672


--------------------------------------------------------------------------------------------------------




--------------------------------------- Iteration      1(   9)  ---------------------------------------


    POTLOK:  cpu time      0.0138: real time      0.0139
    SETDIJ:  cpu time      0.0041: real time      0.0041
     EDDAV:  cpu time     21.3322: real time     21.4052
       DOS:  cpu time      0.0072: real time      0.0072
    CHARGE:  cpu time      0.4432: real time      0.4447
    MIXING:  cpu time      0.0005: real time      0.0005
    --------------------------------------------
      LOOP:  cpu time     21.8010: real time     21.8756

 eigenvalue-minimisations  : 30976
 total energy-change (2. order) : 0.4081277E+00  (-0.3406085E+01)
 number of electron     847.9999785 magnetization 
 augmentation part      186.1767973 magnetization 

[...]
  0.001  -0.000  -0.001  -0.005   0.004   0.007   0.010  -0.002   3.280   0.084  -0.015  -0.010   0.001  -1.380  -0.051   0.003
  0.003   0.011   0.002   0.003  -0.005  -0.000  -0.000   0.011   0.084   3.287   0.014  -0.075  -0.026  -0.051  -1.385  -0.005
 -0.000  -0.003   0.005  -0.003   0.003  -0.010   0.005  -0.004  -0.015   0.014   2.630  -0.009  -0.027   0.003  -0.005  -1.190
 -0.003   0.013  -0.005  -0.002   0.002   0.012   0.008  -0.000  -0.010  -0.075  -0.009   3.306  -0.019   0.008   0.041   0.004
  0.002   0.020   0.009  -0.000  -0.006  -0.020   0.000   0.007   0.001  -0.026  -0.027  -0.019   2.659   0.000   0.010   0.010
 -0.001   0.008   0.001   0.003  -0.002  -0.003  -0.006   0.003  -1.380  -0.051   0.003   0.008   0.000   0.592   0.029   0.001
 -0.003  -0.002  -0.001  -0.002   0.003   0.001   0.003  -0.007  -0.051  -1.385  -0.005   0.041   0.010   0.029   0.595   0.002
  0.000   0.001  -0.003   0.002  -0.002   0.004  -0.002   0.002   0.003  -0.005  -1.190   0.004   0.010   0.001   0.002   0.546
  0.002  -0.017   0.003   0.001  -0.001  -0.007  -0.004   0.001   0.008   0.041   0.004  -1.392   0.007  -0.005  -0.022  -0.001
 -0.002  -0.008  -0.005   0.000   0.004   0.007  -0.000  -0.003   0.000   0.011   0.011   0.007  -1.200  -0.000  -0.004  -0.004


------------------------ aborting loop because EDIFF is reached ----------------------------------------


    CHARGE:  cpu time      0.5789: real time      0.5808
    FORLOC:  cpu time      0.0043: real time      0.0043
    FORNL :  cpu time     15.6936: real time     15.7824
    STRESS:  cpu time     15.6878: real time     15.9104
    FORCOR:  cpu time      0.0194: real time      0.0195
    FORHAR:  cpu time      0.0068: real time      0.0070
    MIXING:  cpu time      0.0012: real time      0.0012
    OFIELD:  cpu time      0.0000: real time      0.0000

  FORCE on cell =-STRESS in cart. coord.  units (eV):
  Direction    XX          YY          ZZ          XY          YZ          ZX
  --------------------------------------------------------------------------------------
  Alpha Z  7288.33716  7288.33716  7288.33716
  Ewald  -29895.83434-29927.26939-29830.73475    41.49007   -13.16535     1.28969
  Hartree  5171.86937  5144.45891  5240.02528    39.53198   -11.86566    -0.86017
  E(xc)   -3917.50314 -3917.48838 -3917.57659    -0.07093     0.01396     0.05014
  Local    6741.90053  6797.96275  6607.93300   -77.89727    24.32115    -1.12014
  n-local -1071.60208 -1067.18600 -1068.07743    -2.11941     0.38646     0.17813
  augment  2511.40802  2511.31751  2511.37024    -0.47871     0.10706     0.03212
  Kinetic 13056.77262 13056.33744 13055.62083     0.75011     0.21092    -0.12167
  Fock        0.00000     0.00000     0.00000     0.00000     0.00000     0.00000
  -------------------------------------------------------------------------------------
  Total    -114.65185  -113.53002  -113.10227     1.20583     0.00854    -0.55190
  in kB    -161.19589  -159.61864  -159.01724     1.69535     0.01201    -0.77595
  external pressure =     -159.94 kB  Pullay stress =        0.00 kB


 VOLUME and BASIS-vectors are now :
 -----------------------------------------------------------------------------
  energy-cutoff  :      250.00
  volume of cell :     1139.56
      direct lattice vectors                 reciprocal lattice vectors
    13.160000000  0.000000000  0.000000000     0.075987842  0.000000000  0.000000000
     0.000000000 13.160000000  0.000000000     0.000000000  0.075987842  0.000000000
     0.000000000  0.000000000  6.580000000     0.000000000  0.000000000  0.151975684

  length of vectors
    13.160000000 13.160000000  6.580000000     0.075987842  0.075987842  0.151975684


 FORCES acting on ions
    electron-ion (+dipol)            ewald-force                    non-local-force                 convergence-correction
 -----------------------------------------------------------------------------------------------
   -.765E+02 -.628E+02 -.290E+02   0.763E+02 0.622E+02 0.287E+02   -.379E-02 -.236E+00 0.520E-01   -.463E-04 0.250E-04 -.708E-05
   -.438E+02 0.659E+02 0.655E+02   0.436E+02 -.659E+02 -.648E+02   -.245E+00 0.270E+00 -.121E+00   0.227E-05 0.193E-04 -.171E-05
   0.323E+02 0.428E+02 -.175E+02   -.320E+02 -.428E+02 0.175E+02   -.314E+00 0.368E-01 -.412E-01   0.159E-04 0.171E-04 0.125E-04
   0.186E+02 0.843E+01 -.387E+02   -.187E+02 -.847E+01 0.383E+02   0.167E+00 -.934E-01 0.150E+00   0.916E-05 0.758E-05 0.167E-04
   -.152E+01 -.443E+02 0.378E+02   0.126E+01 0.439E+02 -.372E+02   0.262E+00 -.447E-01 -.153E+00   0.290E-04 0.350E-04 0.896E-05
   -.483E+02 0.473E+02 0.102E+02   0.483E+02 -.466E+02 -.104E+02   -.345E+00 -.773E-02 0.578E-01   0.289E-04 0.223E-04 -.197E-04
   -.321E+02 0.588E+02 -.656E+02   0.318E+02 -.585E+02 0.648E+02   0.628E-01 -.457E-01 0.142E+00   -.143E-04 0.285E-04 -.508E-06
   -.995E+02 0.277E+02 -.566E-01   0.992E+02 -.272E+02 0.508E+00   -.181E+00 -.956E-01 -.221E+00   -.483E-05 -.246E-04 -.153E-04
   -.503E+02 0.192E+02 -.717E+01   0.509E+02 -.185E+02 0.695E+01   -.481E+00 -.902E-01 0.857E-01   -.166E-04 0.158E-04 0.375E-05
   -.791E+02 0.490E+02 -.286E+02   0.791E+02 -.490E+02 0.284E+02   -.223E+00 0.379E+00 0.732E-01   -.489E-04 -.338E-04 -.126E-04
   -.233E+02 -.504E+02 0.464E+02   0.228E+02 0.503E+02 -.461E+02   0.491E+00 -.256E+00 0.160E-01   -.860E-06 -.542E-04 0.178E-04
   0.213E+02 -.349E+02 -.199E+02   -.211E+02 0.343E+02 0.199E+02   -.298E-01 0.764E-01 -.374E-01   -.172E-05 -.271E-04 -.312E-05
   -.232E+01 0.196E+02 -.277E+02   0.252E+01 -.194E+02 0.270E+02   -.623E-01 -.182E-02 0.239E+00   -.598E-04 -.202E-04 0.224E-04
   0.329E+02 0.281E+02 0.297E+02   -.328E+02 -.279E+02 -.294E+02   -.994E-01 -.782E-01 -.294E-01   0.688E-04 -.204E-04 -.223E-04
   0.602E+02 -.185E+02 -.277E+02   -.599E+02 0.183E+02 0.274E+02   -.243E-01 0.118E+00 0.424E-01   -.160E-05 -.280E-04 0.379E-04
   0.226E+02 0.588E+02 0.713E+01   -.224E+02 -.587E+02 -.690E+01   -.108E+00 0.298E+00 -.108E+00   -.356E-04 -.852E-05 -.250E-04
   -.315E+02 -.302E+02 0.359E+02   0.315E+02 0.296E+02 -.355E+02   -.649E-01 0.626E-01 -.396E-01   0.279E-04 -.266E-04 0.110E-04
   0.623E+02 0.399E+02 0.552E+02   -.625E+02 -.395E+02 -.546E+02   0.357E+00 -.356E-01 -.154E+00   0.301E-04 -.456E-04 -.278E-04
   0.741E+02 -.691E+02 -.107E+02   -.738E+02 0.689E+02 0.104E+02   -.156E-01 -.120E+00 0.655E-01   -.211E-04 0.631E-04 -.242E-04
   -.748E+02 -.387E+02 0.207E+02   0.744E+02 0.381E+02 -.207E+02   -.256E-01 0.365E+00 -.185E-01   -.118E-04 0.468E-04 -.306E-05
   0.322E+02 0.156E+02 -.222E+02   -.324E+02 -.163E+02 0.222E+02   0.276E+00 0.454E+00 0.300E-01   0.562E-04 -.191E-04 0.897E-06
   -.392E+02 0.431E+02 -.405E+02   0.394E+02 -.428E+02 0.401E+02   -.364E+00 0.145E-01 0.521E-01   -.901E-05 0.425E-04 -.272E-04
   -.179E+02 -.425E+02 -.497E+02   0.176E+02 0.424E+02 0.496E+02   0.642E-01 0.483E-02 -.988E-01   -.109E-04 -.751E-04 -.215E-04
   -.227E+02 0.202E+02 0.303E+02   0.228E+02 -.202E+02 -.302E+02   -.383E+00 0.318E+00 0.814E-02   -.861E-05 0.517E-04 -.255E-04
   0.865E+02 -.690E+02 0.107E+02   -.865E+02 0.688E+02 -.104E+02   0.374E+00 -.205E+00 -.612E-01   -.367E-04 0.537E-04 0.250E-04
   0.275E+02 0.576E+02 0.188E+02   -.275E+02 -.579E+02 -.188E+02   0.914E-02 0.439E+00 0.407E-01   0.101E-04 0.180E-04 -.126E-04
   0.619E+02 -.174E+02 -.847E+01   -.618E+02 0.179E+02 0.825E+01   -.800E-02 -.358E+00 0.495E-01   0.501E-05 0.434E-04 -.515E-05
   -.379E+02 0.519E+02 0.405E+02   0.382E+02 -.520E+02 -.401E+02   -.331E+00 0.441E+00 -.676E-01   -.412E-05 0.344E-04 0.258E-04
   0.242E+02 0.369E+02 -.758E+01   -.240E+02 -.369E+02 0.743E+01   -.113E-01 0.116E+00 -.124E-01   -.321E-04 -.112E-04 0.214E-04
   0.162E+01 0.849E+01 0.805E+01   -.139E+01 -.877E+01 -.786E+01   0.377E-01 0.292E+00 0.280E-02   -.450E-05 -.379E-04 0.324E-05
   -.523E+02 -.502E+02 -.207E+02   0.517E+02 0.499E+02 0.207E+02   0.300E+00 -.782E-01 0.813E-02   -.247E-04 0.570E-04 0.402E-05
   -.615E+02 -.381E+02 0.246E+02   0.614E+02 0.372E+02 -.243E+02   -.140E+00 0.273E+00 -.201E-01   -.369E-04 0.177E-04 0.529E-05
   -.889E+00 0.118E+02 0.235E+02   0.115E+01 -.112E+02 -.229E+02   -.125E-01 -.295E+00 0.653E-01   -.590E-04 -.164E-04 -.182E-04
   0.310E+02 0.207E+02 -.252E+02   -.309E+02 -.205E+02 0.249E+02   0.238E-01 -.118E+00 0.186E-01   0.391E-04 -.219E-04 0.194E-04
   0.280E+02 -.293E+02 -.137E+02   -.283E+02 0.295E+02 0.133E+02   0.425E+00 -.803E-01 0.174E-01   0.134E-04 -.216E-04 -.124E-04
   0.162E+02 -.396E+02 0.137E+02   -.162E+02 0.399E+02 -.133E+02   0.555E-01 -.524E+00 0.198E-02   0.257E-04 -.667E-05 0.104E-04
   0.385E+02 -.504E+02 0.216E+02   -.382E+02 0.496E+02 -.214E+02   0.113E-01 0.303E-02 0.321E-01   -.280E-07 0.113E-04 -.540E-05
   -.307E+02 0.306E+02 0.890E+01   0.305E+02 -.304E+02 -.906E+01   0.108E+00 0.302E-01 -.370E-01   -.138E-04 -.924E-05 -.918E-05
   0.506E+02 0.623E+02 -.239E+02   -.505E+02 -.624E+02 0.237E+02   0.258E+00 0.583E+00 -.476E-01   -.408E-04 -.192E-04 -.651E-05
   -.267E+02 -.234E+02 -.304E+02   0.267E+02 0.229E+02 0.300E+02   -.506E-01 -.436E-02 -.736E-01   0.238E-04 -.742E-05 -.517E-05
   0.228E+02 -.847E+01 -.642E+01   -.228E+02 0.855E+01 0.618E+01   0.246E+00 -.449E+00 0.902E-03   -.242E-04 -.423E-05 0.566E-05
   0.641E+02 0.661E+02 0.303E+02   -.639E+02 -.661E+02 -.302E+02   0.427E-01 0.631E-01 0.668E-01   -.312E-04 -.959E-06 0.108E-04
   -.225E+02 0.415E+02 -.114E+02   0.225E+02 -.414E+02 0.115E+02   -.246E+00 0.132E+00 0.714E-01   -.210E-04 -.208E-04 0.164E-04
   -.463E+02 -.105E+02 0.183E+02   0.466E+02 0.105E+02 -.184E+02   -.393E+00 0.659E-02 0.210E-01   -.707E-05 0.933E-05 0.189E-04
   -.577E+02 0.383E+02 0.307E+02   0.575E+02 -.383E+02 -.305E+02   -.173E-01 0.106E+00 0.851E-01   -.572E-04 -.238E-04 0.141E-04
   0.547E+02 -.113E+02 0.215E+02   -.547E+02 0.106E+02 -.214E+02   -.151E+00 0.228E+00 -.171E-01   -.233E-04 -.287E-04 -.355E-06
   0.482E+01 -.143E+02 0.222E+02   -.481E+01 0.139E+02 -.222E+02   0.115E-01 -.837E-01 -.371E-01   0.626E-04 0.368E-05 -.391E-05
   0.413E+02 -.664E+02 0.207E+02   -.416E+02 0.663E+02 -.207E+02   0.289E+00 -.224E+00 -.999E-02   0.151E-04 -.106E-05 -.433E-04
   0.412E+02 0.498E+02 0.293E+02   -.410E+02 -.494E+02 -.291E+02   0.581E-01 0.253E+00 0.378E-01   0.462E-04 -.351E-04 -.677E-05
   -.961E+02 0.219E+02 0.292E+00   0.960E+02 -.213E+02 -.547E+00   -.567E+00 -.166E+00 -.174E+00   0.145E-04 -.903E-05 0.144E-04
   -.113E+02 -.345E+02 -.226E+02   0.116E+02 0.338E+02 0.226E+02   -.306E+00 0.312E+00 0.227E-01   0.422E-04 -.184E-04 0.381E-05
   -.247E+02 0.545E+02 -.110E+02   0.245E+02 -.541E+02 0.111E+02   -.119E+00 0.336E+00 0.848E-01   0.319E-04 0.260E-04 0.223E-04
   -.755E+01 -.162E+02 -.303E+02   0.745E+01 0.167E+02 0.302E+02   -.791E-01 -.361E+00 -.564E-01   -.230E-04 0.275E-04 0.255E-04
   -.112E+02 -.708E+02 0.226E+02   0.112E+02 0.707E+02 -.226E+02   -.468E-01 -.455E+00 -.380E-01   0.256E-04 -.167E-04 -.453E-05
   -.384E+00 -.412E+02 -.404E+02   0.109E+00 0.407E+02 0.401E+02   0.378E+00 0.763E-01 -.121E+00   0.363E-04 0.298E-04 -.102E-04
   -.387E+02 -.365E+02 -.184E+02   0.387E+02 0.369E+02 0.184E+02   -.884E-02 -.392E+00 -.234E-01   0.505E-05 0.322E-05 -.179E-04
   0.562E+02 0.427E+02 -.592E+02   -.565E+02 -.425E+02 0.588E+02   0.460E+00 0.281E+00 -.108E+00   0.792E-05 -.376E-04 0.321E-04
   0.424E+02 0.411E+02 -.293E+02   -.423E+02 -.403E+02 0.291E+02   0.429E-01 -.315E+00 -.167E-01   0.389E-04 -.244E-04 0.873E-05
   0.564E+02 -.608E+02 -.273E+02   -.565E+02 0.604E+02 0.272E+02   0.458E+00 -.141E+00 -.792E-01   0.156E-04 0.287E-04 0.587E-05
   0.422E+02 -.313E+02 0.296E+02   -.418E+02 0.315E+02 -.295E+02   -.211E+00 -.492E+00 0.837E-01   0.113E-04 -.353E-04 -.329E-04
   -.583E+02 0.616E+01 0.763E+01   0.588E+02 -.545E+01 -.748E+01   -.357E+00 -.159E+00 0.736E-01   -.110E-04 0.390E-04 -.393E-05
   0.457E+02 0.867E+01 0.841E+01   -.456E+02 -.841E+01 -.825E+01   0.188E+00 0.304E-01 0.587E-01   0.657E-05 0.402E-04 0.482E-05
   -.119E+02 0.119E+02 0.415E+02   0.119E+02 -.119E+02 -.412E+02   0.108E+00 0.333E-01 0.128E+00   0.200E-04 -.470E-05 -.190E-04
   0.453E+02 -.964E+02 -.207E+02   -.456E+02 0.965E+02 0.207E+02   0.420E+00 -.559E+00 0.485E-02   0.727E-05 0.130E-04 0.414E-04
 -----------------------------------------------------------------------------------------------
   0.402E-01 0.137E+00 0.321E-01   -.142E-13 -.426E-13 -.995E-13   -.401E-01 -.137E+00 -.321E-01   0.295E-04 0.350E-04 0.173E-04
 
 
 POSITION                                       TOTAL-FORCE (eV/Angst)
 -----------------------------------------------------------------------------------
      1.64500      4.93500      4.93500        -0.261907     -0.786724     -0.212993
      0.00000      0.00000      3.29000        -0.363375      0.294628      0.623918
      6.58000      9.87000      3.29000        -0.051567      0.008853     -0.053009
     11.51500      4.93500      4.93500         0.086026     -0.134099     -0.320035
      3.29000      0.00000      3.29000         0.005804     -0.456395      0.372121
      8.22500     11.51500      1.64500        -0.346417      0.699058     -0.129965
      0.00000      0.00000      0.00000        -0.212135      0.246544     -0.633616
      0.00000      6.58000      0.00000        -0.468685      0.436085      0.230485
      1.64500      1.64500      1.64500         0.123488      0.620312     -0.137772
      1.64500      8.22500      4.93500        -0.296033      0.368953     -0.203467
      0.00000      9.87000      3.29000        -0.030532     -0.342578      0.335211
      4.93500      4.93500      4.93500         0.160653     -0.455002     -0.097526
      3.29000      6.58000      3.29000         0.143100      0.131662     -0.467208
      8.22500      4.93500      1.64500         0.046828      0.150475      0.222307
      6.58000      3.29000      3.29000         0.296840     -0.029175     -0.252422
      3.29000      9.87000      0.00000         0.120968      0.322061      0.125977
      9.87000      9.87000      3.29000        -0.075294     -0.458404      0.386343
      6.58000      6.58000      0.00000         0.118889      0.385998      0.415230
      6.58000      0.00000      0.00000         0.258129     -0.242383     -0.190341
      0.00000      3.29000      3.29000        -0.401560     -0.240075      0.015868
      8.22500      8.22500      4.93500         0.082691     -0.218865     -0.009895
      9.87000      0.00000      0.00000        -0.143036      0.252228     -0.360836
      0.00000      9.87000      0.00000        -0.208582     -0.131310     -0.149582
     11.51500      1.64500      1.64500        -0.298498      0.328826      0.120624
      6.58000      0.00000      3.29000         0.354790     -0.321590      0.178813
      6.58000      9.87000      0.00000         0.005552      0.117586      0.009558
      4.93500     11.51500      1.64500         0.026015      0.157016     -0.174492
      9.87000      0.00000      3.29000        -0.069123      0.416027      0.374271
      3.29000      9.87000      3.29000         0.187309      0.113823     -0.166280
      1.64500     11.51500      4.93500         0.259866      0.013075      0.183844
      0.00000      3.29000      0.00000        -0.348155     -0.371430     -0.003217
      1.64500      4.93500      1.64500        -0.276564     -0.664501      0.241603
      3.29000      6.58000      0.00000         0.253669      0.245245      0.691072
      8.22500      4.93500      4.93500         0.166208      0.074520     -0.242745
      4.93500      1.64500      1.64500         0.202685      0.047391     -0.375678
      4.93500      1.64500      4.93500         0.067201     -0.221654      0.385412
      9.87000      3.29000      0.00000         0.329834     -0.763494      0.264664
     11.51500     11.51500      1.64500        -0.115596      0.222143     -0.196697
      4.93500      8.22500      4.93500         0.339352      0.518785     -0.241181
      9.87000      9.87000      0.00000        -0.052391     -0.461179     -0.486983
      1.64500     11.51500      1.64500         0.246841     -0.373019     -0.240023
      4.93500      8.22500      1.64500         0.258736      0.105199      0.187342
     11.51500     11.51500      4.93500        -0.287679      0.250922      0.183090
      3.29000      3.29000      3.29000        -0.076643     -0.006499     -0.045340
      1.64500      8.22500      1.64500        -0.223898      0.098732      0.220200
      4.93500      4.93500      1.64500        -0.131367     -0.415278      0.048456
      8.22500      8.22500      1.64500         0.019001     -0.493729      0.010340
      8.22500      1.64500      1.64500        -0.053284     -0.317742      0.021083
      9.87000      6.58000      0.00000         0.195916      0.642798      0.225448
      0.00000      6.58000      3.29000        -0.590504      0.470938     -0.429017
     11.51500      8.22500      4.93500        -0.078380     -0.411372     -0.041666
      8.22500     11.51500      4.93500        -0.317451      0.742171      0.195454
     11.51500      1.64500      4.93500        -0.172483      0.134715     -0.172898
     11.51500      8.22500      1.64500        -0.044229     -0.517862      0.021575
      3.29000      0.00000      0.00000         0.103231     -0.440852     -0.441031
      3.29000      3.29000      0.00000        -0.012619     -0.052785      0.023789
      6.58000      6.58000      3.29000         0.139550      0.549396     -0.493896
      9.87000      6.58000      3.29000         0.221738      0.498992     -0.228450
      9.87000      3.29000      3.29000         0.318530     -0.558660     -0.182938
      6.58000      3.29000      0.00000         0.235591     -0.279298      0.224548
      1.64500      1.64500      4.93500         0.169532      0.548906      0.217597
      4.93500     11.51500      4.93500         0.277780      0.296025      0.223971
     11.51500      4.93500      1.64500         0.114703      0.098554      0.403258
      8.22500      1.64500      4.93500         0.070939     -0.442693     -0.002274
 -----------------------------------------------------------------------------------
    total drift:                                0.000098      0.000127      0.000006


--------------------------------------------------------------------------------------------------------



  FREE ENERGIE OF THE ION-ELECTRON SYSTEM (eV)
  ---------------------------------------------------
  free  energy   TOTEN  =      -743.72338801 eV

  energy  without entropy=     -743.71499422  energy(sigma->0) =     -743.71919111
 


--------------------------------------------------------------------------------------------------------


    POTLOK:  cpu time      0.0156: real time      0.0157


--------------------------------------------------------------------------------------------------------


     LOOP+:  cpu time    951.6889: real time    979.4464
    4ORBIT:  cpu time      0.0000: real time      0.0000

 total amount of memory used by VASP MPI-rank0    91701. kBytes
=======================================================================

   base      :      30000. kBytes
   nonl-proj :      12216. kBytes
   fftplans  :       1504. kBytes
   grid      :       2835. kBytes
   one-center:         93. kBytes
   wavefun   :      45053. kBytes
 
  
  
 General timing and accounting informations for this job:
 ========================================================
  
                  Total CPU time used (sec):      999.928
                            User time (sec):      989.054
                          System time (sec):       10.874
                         Elapsed time (sec):     1030.386
  
                   Maximum memory used (kb):      151372.
                   Average memory used (kb):          N/A
  
                          Minor page faults:        52326
                          Major page faults:            0
                 Voluntary context switches:          336
