 vasp.6.3.1 04May22 (build Jul 26 2022 04:02:40) complex                        
  
 executed on             LinuxIFC date 2023.11.30  13:00:44
 running on   48 total cores
 distrk:  each k-point on   48 cores,    1 groups
 distr:  one band on NCORE=  12 cores,    4 groups


--------------------------------------------------------------------------------------------------------


 INCAR:
   ISTART = 0
   NWRITE = 2
   PREC = Accurate
   ENCUT = 250
   GGA = PE
   NSW = 0
   ISIF = 2
   ISYM = 2
   NBLOCK = 1
   KBLOCK = 1
   IBRION = -1
   NELM = 80
   EDIFF = 1E-08
   EDIFFG = -0.01
   ALGO = Normal
   LDIAG = .TRUE.
   LREAL = .FALSE.
   ISMEAR = 0
   SIGMA = 0.02
   ICHARG = 2
   LPLANE = .TRUE.
   NPAR = 4
   LSCALU = .FALSE.
   NSIM = 4
   LWAVE = .FALSE.
   LCHARG = .FALSE.
   ICORELEVEL = 1

 POTCAR:    PAW_PBE Nb_sv 25May2007               
 POTCAR:    PAW_PBE Mo_sv 02Feb2006               
 POTCAR:    PAW_PBE Ta_pv 07Sep2000               
 POTCAR:    PAW_PBE W_sv 04Sep2015                
 POTCAR:    PAW_PBE Nb_sv 25May2007               
   SHA256 =  0e8fc07c9fcd1164cf2ade22d0399fd28f85e91cd773dfa6cf24839a48c95e24 Nb_sv/POTCAR          
   COPYR  = (c) Copyright 25May2007 Georg Kresse                                                    
   COPYR  = This file is part of the software VASP. Any use, copying, and all other rights are regul
   COPYR  = If you do not have a valid VASP license, you may not use, copy or distribute this file. 
   VRHFIN =Nb: 4p5s4d                                                                               
   LEXCH  = PE                                                                                      
   EATOM  =  1555.1913 eV,  114.3033 Ry                                                             
                                                                                                    
   TITEL  = PAW_PBE Nb_sv 25May2007                                                                 
   LULTRA =        F    use ultrasoft PP ?                                                          
   IUNSCR =        1    unscreen: 0-lin 1-nonlin 2-no                                               
   RPACOR =    1.800    partial core radius                                                         
   POMASS =   92.910; ZVAL   =   13.000    mass and valenz                                          
   RCORE  =    2.400    outmost cutoff radius                                                       
   RWIGS  =    2.400; RWIGS  =    1.270    wigner-seitz radius (au A)                               
   ENMAX  =  293.235; ENMIN  =  219.927 eV                                                          
   ICORE  =        3    local potential                                                             
   LCOR   =        T    correct aug charges                                                         
   LPAW   =        T    paw PP                                                                      
   EAUG   =  455.659                                                                                
   DEXC   =    0.000                                                                                
   RMAX   =    2.456    core radius for proj-oper                                                   
   RAUG   =    1.300    factor for augmentation sphere                                              
   RDEP   =    2.451    radius for radial grids                                                     
   RDEPT  =    1.956    core radius for aug-charge                                                  
                                                                                                    
   Atomic configuration                                                                             
   11 entries                                                                                       
     n  l   j            E        occ.                                                              
     1  0  0.50    -18805.2457   2.0000                                                             
     2  0  0.50     -2630.2869   2.0000                                                             
     2  1  1.50     -2348.4046   6.0000                                                             
     3  0  0.50      -438.8757   2.0000                                                             
     3  1  1.50      -346.7588   6.0000                                                             
     3  2  2.50      -196.2560  10.0000                                                             
     4  0  0.50       -58.3859   2.0000                                                             
     5  0  0.50        -3.9816   1.0000                                                             
     4  1  1.50       -34.5141   6.0000                                                             
     4  2  2.50        -3.0408   4.0000                                                             
     4  3  2.50        -1.3606   0.0000                                                             
   Description                                                                                      
     l       E           TYP  RCUT    TYP  RCUT                                                     
     0    -58.3859094     23  2.200                                                                 
     0     -3.9816262     23  2.200                                                                 
     1    -34.5140738     23  2.200                                                                 
     1     13.6058260     23  2.200                                                                 
     2     -3.0408010     23  2.200                                                                 
     2     -0.1283038     23  2.200                                                                 
     3     -1.3605826     23  2.400                                                                 
  local pseudopotential read in
  partial core-charges read in
  partial kinetic energy density read in
  atomic valenz-charges read in
  non local Contribution for L=           0  read in
    real space projection operators read in
  non local Contribution for L=           0  read in
    real space projection operators read in
  non local Contribution for L=           1  read in
    real space projection operators read in
  non local Contribution for L=           1  read in
    real space projection operators read in
  non local Contribution for L=           2  read in
    real space projection operators read in
  non local Contribution for L=           2  read in
    real space projection operators read in
    PAW grid and wavefunctions read in
 
   number of l-projection  operators is LMAX  =           6
   number of lm-projection operators is LMMAX =          18
 
 POTCAR:    PAW_PBE Mo_sv 02Feb2006               
   SHA256 =  2731df97e41766cc617548c5a8267718fdef1f509ac6bafa01e745abea2bdfaa Mo_sv/POTCAR          
   COPYR  = (c) Copyright 02Feb2006 Georg Kresse                                                    
   COPYR  = This file is part of the software VASP. Any use, copying, and all other rights are regul
   COPYR  = If you do not have a valid VASP license, you may not use, copy or distribute this file. 
   VRHFIN =Mo: 4p5s4d                                                                               
   LEXCH  = PE                                                                                      
   EATOM  =  1862.2866 eV,  136.8742 Ry                                                             
                                                                                                    
   TITEL  = PAW_PBE Mo_sv 02Feb2006                                                                 
   LULTRA =        F    use ultrasoft PP ?                                                          
   IUNSCR =        1    unscreen: 0-lin 1-nonlin 2-no                                               
   RPACOR =    2.200    partial core radius                                                         
   POMASS =   95.940; ZVAL   =   14.000    mass and valenz                                          
   RCORE  =    2.500    outmost cutoff radius                                                       
   RWIGS  =    2.750; RWIGS  =    1.455    wigner-seitz radius (au A)                               
   ENMAX  =  242.676; ENMIN  =  182.007 eV                                                          
   ICORE  =        3    local potential                                                             
   LCOR   =        T    correct aug charges                                                         
   LPAW   =        T    paw PP                                                                      
   EAUG   =  446.014                                                                                
   DEXC   =    0.000                                                                                
   RMAX   =    2.563    core radius for proj-oper                                                   
   RAUG   =    1.300    factor for augmentation sphere                                              
   RDEP   =    2.641    radius for radial grids                                                     
   RDEPT  =    2.031    core radius for aug-charge                                                  
                                                                                                    
   Atomic configuration                                                                             
   11 entries                                                                                       
     n  l   j            E        occ.                                                              
     1  0  0.50    -19819.0341   2.0000                                                             
     2  0  0.50     -2799.0127   2.0000                                                             
     2  1  1.50     -2502.0276   6.0000                                                             
     3  0  0.50      -476.4449   2.0000                                                             
     3  1  1.50      -379.1496   6.0000                                                             
     3  2  2.50      -220.9367  10.0000                                                             
     4  0  0.50       -64.3378   2.0000                                                             
     5  0  0.50        -4.0862   1.0000                                                             
     4  1  1.50       -38.4773   6.0000                                                             
     4  2  2.50        -3.7535   5.0000                                                             
     4  3  2.50        -1.3606   0.0000                                                             
   Description                                                                                      
     l       E           TYP  RCUT    TYP  RCUT                                                     
     0    -64.3377829     23  2.100                                                                 
     0     -4.0861640     23  2.400                                                                 
     1    -38.4772993     23  2.100                                                                 
     1     13.6058260     23  2.100                                                                 
     2     -3.7534941     23  2.400                                                                 
     2     -5.1140767     23  2.400                                                                 
     3     -4.0817478     23  2.500                                                                 
  local pseudopotential read in
  partial core-charges read in
  partial kinetic energy density read in
  atomic valenz-charges read in
  non local Contribution for L=           0  read in
    real space projection operators read in
  non local Contribution for L=           0  read in
    real space projection operators read in
  non local Contribution for L=           1  read in
    real space projection operators read in
  non local Contribution for L=           1  read in
    real space projection operators read in
  non local Contribution for L=           2  read in
    real space projection operators read in
  non local Contribution for L=           2  read in
    real space projection operators read in
    PAW grid and wavefunctions read in
 
   number of l-projection  operators is LMAX  =           6
   number of lm-projection operators is LMMAX =          18
 
 POTCAR:    PAW_PBE Ta_pv 07Sep2000               
   SHA256 =  00d0a14a36c127416459414afb8617d9754996fffa60a2465888e660b20a452f Ta_pv/POTCAR          
   COPYR  = (c) Copyright 07Sep2000 Georg Kresse                                                    
   COPYR  = This file is part of the software VASP. Any use, copying, and all other rights are regul
   COPYR  = If you do not have a valid VASP license, you may not use, copy or distribute this file. 
   VRHFIN =Ta:  5p6s5d                                                                              
   LEXCH  = PE                                                                                      
   EATOM  =  1047.1984 eV,   76.9669 Ry                                                             
                                                                                                    
   TITEL  = PAW_PBE Ta_pv 07Sep2000                                                                 
   LULTRA =        F    use ultrasoft PP ?                                                          
   IUNSCR =        1    unscreen: 0-lin 1-nonlin 2-no                                               
   RPACOR =    2.330    partial core radius                                                         
   POMASS =  180.948; ZVAL   =   11.000    mass and valenz                                          
   RCORE  =    2.500    outmost cutoff radius                                                       
   RWIGS  =    2.840; RWIGS  =    1.503    wigner-seitz radius (au A)                               
   ENMAX  =  223.667; ENMIN  =  167.750 eV                                                          
   RCLOC  =    2.205    cutoff for local pot                                                        
   LCOR   =        T    correct aug charges                                                         
   LPAW   =        T    paw PP                                                                      
   EAUG   =  377.421                                                                                
   DEXC   =    0.000                                                                                
   RMAX   =    2.551    core radius for proj-oper                                                   
   RAUG   =    1.300    factor for augmentation sphere                                              
   RDEP   =    2.526    radius for radial grids                                                     
   RDEPT  =    2.132    core radius for aug-charge                                                  
                                                                                                    
   Atomic configuration                                                                             
   15 entries                                                                                       
     n  l   j            E        occ.                                                              
     1  0  0.50    -67341.2801   2.0000                                                             
     2  0  0.50    -11566.9369   2.0000                                                             
     2  1  1.50    -10134.1175   6.0000                                                             
     3  0  0.50     -2648.5614   2.0000                                                             
     3  1  1.50     -2222.6006   6.0000                                                             
     3  2  2.50     -1726.3114  10.0000                                                             
     4  0  0.50      -538.6957   2.0000                                                             
     4  1  1.50      -399.0125   6.0000                                                             
     4  2  2.50      -220.3955  10.0000                                                             
     4  3  3.50       -23.0371  14.0000                                                             
     5  0  0.50       -71.2900   2.0000                                                             
     5  1  1.50       -37.8224   6.0000                                                             
     5  2  2.50        -2.6455   4.0000                                                             
     6  0  0.50        -4.9623   1.0000                                                             
     5  3  2.50        -1.3606   0.0000                                                             
   Description                                                                                      
     l       E           TYP  RCUT    TYP  RCUT                                                     
     1    -37.8224449     23  2.500                                                                 
     1      1.3605826     23  2.500                                                                 
     2     -2.6454718     23  2.500                                                                 
     2     -0.6258570     23  2.500                                                                 
     0     -4.9622674     23  2.500                                                                 
     0      4.7531427     23  2.500                                                                 
  local pseudopotential read in
  partial core-charges read in
  partial kinetic energy density read in
  atomic valenz-charges read in
  non local Contribution for L=           1  read in
    real space projection operators read in
  non local Contribution for L=           1  read in
    real space projection operators read in
  non local Contribution for L=           2  read in
    real space projection operators read in
  non local Contribution for L=           2  read in
    real space projection operators read in
  non local Contribution for L=           0  read in
    real space projection operators read in
  non local Contribution for L=           0  read in
    real space projection operators read in
    PAW grid and wavefunctions read in
 
   number of l-projection  operators is LMAX  =           6
   number of lm-projection operators is LMMAX =          18
 
 POTCAR:    PAW_PBE W_sv 04Sep2015                
   SHA256 =  931c2d770f65867ef30f3db3421922900fc0890ebac5c3e12f63b6a2064023d7 W_sv/POTCAR           
   COPYR  = (c) Copyright 04Sep2015 Georg Kresse                                                    
   COPYR  = This file is part of the software VASP. Any use, copying, and all other rights are regul
   COPYR  = If you do not have a valid VASP license, you may not use, copy or distribute this file. 
   VRHFIN =W : 5p6s5d                                                                               
   LEXCH  = PE                                                                                      
   EATOM  =  1865.5791 eV,  137.1162 Ry                                                             
                                                                                                    
   TITEL  = PAW_PBE W_sv 04Sep2015                                                                  
   LULTRA =        F    use ultrasoft PP ?                                                          
   IUNSCR =        1    unscreen: 0-lin 1-nonlin 2-no                                               
   RPACOR =    2.330    partial core radius                                                         
   POMASS =  183.850; ZVAL   =   14.000    mass and valenz                                          
   RCORE  =    2.500    outmost cutoff radius                                                       
   RWIGS  =    2.750; RWIGS  =    1.455    wigner-seitz radius (au A)                               
   ENMAX  =  223.057; ENMIN  =  167.293 eV                                                          
   ICORE  =        3    local potential                                                             
   LCOR   =        T    correct aug charges                                                         
   LPAW   =        T    paw PP                                                                      
   EAUG   =  373.438                                                                                
   DEXC   =    0.000                                                                                
   RMAX   =    2.565    core radius for proj-oper                                                   
   RAUG   =    1.300    factor for augmentation sphere                                              
   RDEP   =    2.539    radius for radial grids                                                     
   RDEPT  =    2.126    core radius for aug-charge                                                  
                                                                                                    
   Atomic configuration                                                                             
   15 entries                                                                                       
     n  l   j            E        occ.                                                              
     1  0  0.50    -69465.5834   2.0000                                                             
     2  0  0.50    -11986.2640   2.0000                                                             
     2  1  1.50    -10479.8613   6.0000                                                             
     3  0  0.50     -2759.0756   2.0000                                                             
     3  1  1.50     -2313.1855   6.0000                                                             
     3  2  2.50     -1801.1183  10.0000                                                             
     4  0  0.50      -567.6789   2.0000                                                             
     4  1  1.50      -421.4692   6.0000                                                             
     4  2  2.50      -236.3471  10.0000                                                             
     4  3  3.50       -31.2665  14.0000                                                             
     5  0  0.50       -77.1084   2.0000                                                             
     6  0  0.50        -5.1438   1.0000                                                             
     5  1  1.50       -41.3856   6.0000                                                             
     5  2  2.50        -3.3185   5.0000                                                             
     5  3  2.50        -1.3606   0.0000                                                             
   Description                                                                                      
     l       E           TYP  RCUT    TYP  RCUT                                                     
     0    -77.1084470     23  2.100                                                                 
     0     -5.1437956     23  2.300                                                                 
     1    -41.3855615     23  2.500                                                                 
     1     -2.7211652     23  2.500                                                                 
     2     -3.3185025     23  2.500                                                                 
     2     -1.5965151     23  2.500                                                                 
     3     -1.3605826     23  2.500                                                                 
  local pseudopotential read in
  partial core-charges read in
  partial kinetic energy density read in
  kinetic energy density of atom read in
  atomic valenz-charges read in
  non local Contribution for L=           0  read in
    real space projection operators read in
  non local Contribution for L=           0  read in
    real space projection operators read in
  non local Contribution for L=           1  read in
    real space projection operators read in
  non local Contribution for L=           1  read in
    real space projection operators read in
  non local Contribution for L=           2  read in
    real space projection operators read in
  non local Contribution for L=           2  read in
    real space projection operators read in
    PAW grid and wavefunctions read in
 
   number of l-projection  operators is LMAX  =           6
   number of lm-projection operators is LMMAX =          18
 
 -----------------------------------------------------------------------------
|                                                                             |
|               ----> ADVICE to this user running VASP <----                  |
|                                                                             |
|     You have a (more or less) 'large supercell' and for larger cells it     |
|     might be more efficient to use real-space projection operators.         |
|     Therefore, try LREAL= Auto in the INCAR file.                           |
|     Mind: For very accurate calculation, you might also keep the            |
|     reciprocal projection scheme (i.e. LREAL=.FALSE.).                      |
|                                                                             |
 -----------------------------------------------------------------------------

  PAW_PBE Nb_sv 25May2007               :
 energy of atom  1       EATOM=-1555.1913
 kinetic energy error for atom=    0.2155 (will be added to EATOM!!)
  PAW_PBE Mo_sv 02Feb2006               :
 energy of atom  2       EATOM=-1862.2866
 kinetic energy error for atom=    0.1102 (will be added to EATOM!!)
  PAW_PBE Ta_pv 07Sep2000               :
 energy of atom  3       EATOM=-1047.1984
 kinetic energy error for atom=    0.0394 (will be added to EATOM!!)
  PAW_PBE W_sv 04Sep2015                :
 energy of atom  4       EATOM=-1865.5791
 kinetic energy error for atom=    0.0589 (will be added to EATOM!!)
 
 
 POSCAR: Nb-Mo-Ta-W alloy
  positions in direct lattice
  No initial velocities read in
 exchange correlation table for  LEXCH =        8
   RHO(1)=    0.500       N(1)  =     2000
   RHO(2)=  100.500       N(2)  =     4000
 


--------------------------------------------------------------------------------------------------------


 ion  position               nearest neighbor table
   1  0.375  0.250  0.250-   6 2.85   7 2.85   9 2.85  13 2.85  15 2.85  16 2.85  26 2.85  28 2.85

   2  0.125  0.250  0.250-   4 2.85   9 2.85  13 2.85  14 2.85  16 2.85  21 2.85  23 2.85  28 2.85
                            19 3.29  19 3.29
   3  0.375  0.250  0.750-   6 2.85   7 2.85   9 2.85  13 2.85  15 2.85  16 2.85  26 2.85  28 2.85
                            18 3.29  20 3.29  20 3.29
   4  0.000  0.000  0.000-   2 2.85   5 2.85  17 2.85  19 2.85  24 2.85  25 2.85  30 2.85  32 2.85
                            23 3.29  23 3.29
   5  0.125  0.750  0.750-   4 2.85   9 2.85  13 2.85  14 2.85  16 2.85  21 2.85  23 2.85  28 2.85
                            20 3.29  19 3.29  19 3.29
   6  0.500  0.000  0.500-   1 2.85   3 2.85   8 2.85  11 2.85  18 2.85  20 2.85  27 2.85  29 2.85

   7  0.500  0.500  0.500-   1 2.85   3 2.85   8 2.85  11 2.85  18 2.85  20 2.85  27 2.85  29 2.85

   8  0.625  0.750  0.750-   6 2.85   7 2.85  10 2.85  12 2.85  15 2.85  22 2.85  26 2.85  31 2.85
                            20 3.29  18 3.29  18 3.29
   9  0.250  0.000  0.000-   1 2.85   2 2.85   3 2.85   5 2.85  11 2.85  19 2.85  20 2.85  30 2.85

  10  0.750  0.000  0.000-   8 2.85  17 2.85  18 2.85  24 2.85  25 2.85  27 2.85  29 2.85  32 2.85
                            12 3.29  22 3.29  26 3.29  12 3.29  22 3.29
  11  0.375  0.750  0.250-   6 2.85   7 2.85   9 2.85  13 2.85  15 2.85  16 2.85  26 2.85  28 2.85
                            19 3.29  20 3.29  29 3.29  20 3.29
  12  0.750  0.000  0.500-   8 2.85  17 2.85  18 2.85  24 2.85  25 2.85  27 2.85  29 2.85  32 2.85
                            14 3.29  31 3.29  10 3.29  10 3.29  31 3.29
  13  0.250  0.500  0.500-   1 2.85   2 2.85   3 2.85   5 2.85  11 2.85  19 2.85  20 2.85  30 2.85
                            21 3.29  28 3.29  16 3.29  16 3.29  28 3.29
  14  0.000  0.000  0.500-   2 2.85   5 2.85  17 2.85  19 2.85  24 2.85  25 2.85  30 2.85  32 2.85
                            28 3.29  12 3.29  21 3.29  21 3.29
  15  0.500  0.500  0.000-   1 2.85   3 2.85   8 2.85  11 2.85  18 2.85  20 2.85  27 2.85  29 2.85
                            26 3.29  16 3.29  22 3.29  26 3.29
  16  0.250  0.500  0.000-   1 2.85   2 2.85   3 2.85   5 2.85  11 2.85  19 2.85  20 2.85  30 2.85
                            15 3.29  23 3.29  13 3.29  13 3.29
  17  0.875  0.750  0.250-   4 2.85  10 2.85  12 2.85  14 2.85  21 2.85  22 2.85  23 2.85  31 2.85
                            24 3.29  25 3.29  29 3.29  19 3.29  24 3.29  25 3.29
  18  0.625  0.250  0.750-   6 2.85   7 2.85  10 2.85  12 2.85  15 2.85  22 2.85  26 2.85  31 2.85
                             3 3.29  27 3.29   8 3.29  32 3.29  27 3.29   8 3.29
  19  0.125  0.750  0.250-   4 2.85   9 2.85  13 2.85  14 2.85  16 2.85  21 2.85  23 2.85  28 2.85
                            17 3.29   5 3.29   2 3.29  11 3.29   5 3.29   2 3.29
  20  0.375  0.750  0.750-   6 2.85   7 2.85   9 2.85  13 2.85  15 2.85  16 2.85  26 2.85  28 2.85
                             8 3.29   3 3.29  11 3.29   5 3.29  11 3.29   3 3.29
  21  0.000  0.500  0.500-   2 2.85   5 2.85  17 2.85  19 2.85  24 2.85  25 2.85  30 2.85  32 2.85
                            14 3.29  23 3.29  31 3.29  13 3.29  23 3.29  14 3.29
  22  0.750  0.500  0.000-   8 2.85  17 2.85  18 2.85  24 2.85  25 2.85  27 2.85  29 2.85  32 2.85
                            23 3.29  10 3.29  31 3.29  15 3.29  31 3.29  10 3.29
  23  0.000  0.500  0.000-   2 2.85   5 2.85  17 2.85  19 2.85  24 2.85  25 2.85  30 2.85  32 2.85
                             4 3.29  16 3.29  21 3.29  22 3.29  21 3.29   4 3.29
  24  0.875  0.750  0.750-   4 2.85  10 2.85  12 2.85  14 2.85  21 2.85  22 2.85  23 2.85  31 2.85
                            17 3.29  32 3.29  17 3.29  32 3.29
  25  0.875  0.250  0.250-   4 2.85  10 2.85  12 2.85  14 2.85  21 2.85  22 2.85  23 2.85  31 2.85
                            27 3.29  17 3.29  32 3.29  32 3.29  17 3.29
  26  0.500  0.000  0.000-   1 2.85   3 2.85   8 2.85  11 2.85  18 2.85  20 2.85  27 2.85  29 2.85
                            10 3.29  15 3.29  15 3.29
  27  0.625  0.250  0.250-   6 2.85   7 2.85  10 2.85  12 2.85  15 2.85  22 2.85  26 2.85  31 2.85
                            18 3.29  29 3.29  25 3.29  18 3.29  29 3.29
  28  0.250  0.000  0.500-   1 2.85   2 2.85   3 2.85   5 2.85  11 2.85  19 2.85  20 2.85  30 2.85
                            14 3.29  13 3.29  13 3.29
  29  0.625  0.750  0.250-   6 2.85   7 2.85  10 2.85  12 2.85  15 2.85  22 2.85  26 2.85  31 2.85
                            17 3.29  27 3.29  11 3.29  27 3.29
  30  0.125  0.250  0.750-   4 2.85   9 2.85  13 2.85  14 2.85  16 2.85  21 2.85  23 2.85  28 2.85
                            32 3.29
  31  0.750  0.500  0.500-   8 2.85  17 2.85  18 2.85  24 2.85  25 2.85  27 2.85  29 2.85  32 2.85
                            22 3.29  12 3.29  21 3.29  22 3.29  12 3.29
  32  0.875  0.250  0.750-   4 2.85  10 2.85  12 2.85  14 2.85  21 2.85  22 2.85  23 2.85  31 2.85
                            24 3.29  25 3.29  30 3.29  18 3.29  25 3.29  24 3.29
 
  LATTYP: Found a simple tetragonal cell.
 ALAT       =     6.5800000000
 C/A-ratio  =     2.0000000000
  
  Lattice vectors:
  
 A1 = (   0.0000000000,   6.5800000000,   0.0000000000)
 A2 = (   0.0000000000,   0.0000000000,   6.5800000000)
 A3 = (  13.1600000000,   0.0000000000,   0.0000000000)


Analysis of symmetry for initial positions (statically):
=====================================================================
 Subroutine PRICEL returns:
 Original cell was already a primitive cell.
 

 Routine SETGRP: Setting up the symmetry group for a 
 simple tetragonal supercell.


 Subroutine GETGRP returns: Found  1 space group operations
 (whereof  1 operations were pure point group operations)
 out of a pool of 16 trial point group operations.


The static configuration has the point symmetry C_1 .


Analysis of symmetry for dynamics (positions and initial velocities):
=====================================================================
 Subroutine PRICEL returns:
 Original cell was already a primitive cell.
 

 Routine SETGRP: Setting up the symmetry group for a 
 simple tetragonal supercell.


 Subroutine GETGRP returns: Found  1 space group operations
 (whereof  1 operations were pure point group operations)
 out of a pool of 16 trial point group operations.


The dynamic configuration has the point symmetry C_1 .


 Subroutine INISYM returns: Found  1 space group operations
 (whereof  1 operations are pure point group operations),
 and found     1 'primitive' translations


----------------------------------------------------------------------------------------

                                     Primitive cell                                     

  volume of cell :     569.7806

  direct lattice vectors                    reciprocal lattice vectors
    13.160000000  0.000000000  0.000000000     0.075987842  0.000000000  0.000000000
     0.000000000  6.580000000  0.000000000     0.000000000  0.151975684  0.000000000
     0.000000000  0.000000000  6.580000000     0.000000000  0.000000000  0.151975684

  length of vectors
    13.160000000  6.580000000  6.580000000     0.075987842  0.151975684  0.151975684

  position of ions in fractional coordinates (direct lattice)
     0.375000000  0.250000000  0.250000000
     0.125000000  0.250000000  0.250000000
     0.375000000  0.250000000  0.750000000
     0.000000000  0.000000000  0.000000000
     0.125000000  0.750000000  0.750000000
     0.500000000  0.000000000  0.500000000
     0.500000000  0.500000000  0.500000000
     0.625000000  0.750000000  0.750000000
     0.250000000  0.000000000  0.000000000
     0.750000000  0.000000000  0.000000000
     0.375000000  0.750000000  0.250000000
     0.750000000  0.000000000  0.500000000
     0.250000000  0.500000000  0.500000000
     0.000000000  0.000000000  0.500000000
     0.500000000  0.500000000  0.000000000
     0.250000000  0.500000000  0.000000000
     0.875000000  0.750000000  0.250000000
     0.625000000  0.250000000  0.750000000
     0.125000000  0.750000000  0.250000000
     0.375000000  0.750000000  0.750000000
     0.000000000  0.500000000  0.500000000
     0.750000000  0.500000000  0.000000000
     0.000000000  0.500000000  0.000000000
     0.875000000  0.750000000  0.750000000
     0.875000000  0.250000000  0.250000000
     0.500000000  0.000000000  0.000000000
     0.625000000  0.250000000  0.250000000
     0.250000000  0.000000000  0.500000000
     0.625000000  0.750000000  0.250000000
     0.125000000  0.250000000  0.750000000
     0.750000000  0.500000000  0.500000000
     0.875000000  0.250000000  0.750000000

  ion indices of the primitive-cell ions
   primitive index   ion index
                 1           1
                 2           2
                 3           3
                 4           4
                 5           5
                 6           6
                 7           7
                 8           8
                 9           9
                10          10
                11          11
                12          12
                13          13
                14          14
                15          15
                16          16
                17          17
                18          18
                19          19
                20          20
                21          21
                22          22
                23          23
                24          24
                25          25
                26          26
                27          27
                28          28
                29          29
                30          30
                31          31
                32          32

----------------------------------------------------------------------------------------

 
 
 KPOINTS: K-Spacing Value to Generate K-Mesh: 0.03

Automatic generation of k-mesh.
 Grid dimensions read from file:
 generate k-points for:    3    5    5

 Generating k-lattice:

  Cartesian coordinates                     Fractional coordinates (reciprocal lattice)
     0.025329281  0.000000000  0.000000000     0.333333333  0.000000000  0.000000000
     0.000000000  0.030395137  0.000000000     0.000000000  0.200000000  0.000000000
     0.000000000  0.000000000  0.030395137     0.000000000  0.000000000  0.200000000

  Length of vectors
     0.025329281  0.030395137  0.030395137

  Shift w.r.t. Gamma in fractional coordinates (k-lattice)
     0.000000000  0.000000000  0.000000000

 
 Subroutine IBZKPT returns following result:
 ===========================================
 
 Found     38 irreducible k-points:
 
 Following reciprocal coordinates:
            Coordinates               Weight
  0.000000  0.000000  0.000000      1.000000
  0.333333  0.000000  0.000000      2.000000
  0.000000  0.200000  0.000000      2.000000
  0.000000  0.000000  0.200000      2.000000
  0.333333  0.200000  0.000000      2.000000
  0.333333  0.000000  0.200000      2.000000
  0.333333 -0.200000  0.000000      2.000000
  0.333333  0.000000 -0.200000      2.000000
  0.000000  0.400000  0.000000      2.000000
  0.000000  0.000000  0.400000      2.000000
  0.333333  0.400000  0.000000      2.000000
  0.333333  0.000000  0.400000      2.000000
  0.333333 -0.400000  0.000000      2.000000
  0.333333  0.000000 -0.400000      2.000000
  0.000000  0.200000  0.200000      2.000000
  0.000000 -0.200000  0.200000      2.000000
  0.333333  0.200000  0.200000      2.000000
  0.333333 -0.200000  0.200000      2.000000
  0.333333 -0.200000 -0.200000      2.000000
  0.333333  0.200000 -0.200000      2.000000
  0.000000  0.400000  0.200000      2.000000
  0.000000 -0.200000  0.400000      2.000000
  0.000000 -0.400000  0.200000      2.000000
  0.000000  0.200000  0.400000      2.000000
  0.333333  0.400000  0.200000      2.000000
  0.333333 -0.200000  0.400000      2.000000
  0.333333 -0.400000 -0.200000      2.000000
  0.333333  0.200000 -0.400000      2.000000
 -0.333333 -0.400000  0.200000      2.000000
 -0.333333  0.200000  0.400000      2.000000
 -0.333333  0.400000 -0.200000      2.000000
 -0.333333 -0.200000 -0.400000      2.000000
  0.000000  0.400000  0.400000      2.000000
  0.000000 -0.400000  0.400000      2.000000
  0.333333  0.400000  0.400000      2.000000
  0.333333 -0.400000  0.400000      2.000000
  0.333333 -0.400000 -0.400000      2.000000
  0.333333  0.400000 -0.400000      2.000000
 
 Following cartesian coordinates:
            Coordinates               Weight
  0.000000  0.000000  0.000000      1.000000
  0.025329  0.000000  0.000000      2.000000
  0.000000  0.030395  0.000000      2.000000
  0.000000  0.000000  0.030395      2.000000
  0.025329  0.030395  0.000000      2.000000
  0.025329  0.000000  0.030395      2.000000
  0.025329 -0.030395  0.000000      2.000000
  0.025329  0.000000 -0.030395      2.000000
  0.000000  0.060790  0.000000      2.000000
  0.000000  0.000000  0.060790      2.000000
  0.025329  0.060790  0.000000      2.000000
  0.025329  0.000000  0.060790      2.000000
  0.025329 -0.060790  0.000000      2.000000
  0.025329  0.000000 -0.060790      2.000000
  0.000000  0.030395  0.030395      2.000000
  0.000000 -0.030395  0.030395      2.000000
  0.025329  0.030395  0.030395      2.000000
  0.025329 -0.030395  0.030395      2.000000
  0.025329 -0.030395 -0.030395      2.000000
  0.025329  0.030395 -0.030395      2.000000
  0.000000  0.060790  0.030395      2.000000
  0.000000 -0.030395  0.060790      2.000000
  0.000000 -0.060790  0.030395      2.000000
  0.000000  0.030395  0.060790      2.000000
  0.025329  0.060790  0.030395      2.000000
  0.025329 -0.030395  0.060790      2.000000
  0.025329 -0.060790 -0.030395      2.000000
  0.025329  0.030395 -0.060790      2.000000
 -0.025329 -0.060790  0.030395      2.000000
 -0.025329  0.030395  0.060790      2.000000
 -0.025329  0.060790 -0.030395      2.000000
 -0.025329 -0.030395 -0.060790      2.000000
  0.000000  0.060790  0.060790      2.000000
  0.000000 -0.060790  0.060790      2.000000
  0.025329  0.060790  0.060790      2.000000
  0.025329 -0.060790  0.060790      2.000000
  0.025329 -0.060790 -0.060790      2.000000
  0.025329  0.060790 -0.060790      2.000000
 


--------------------------------------------------------------------------------------------------------




 Dimension of arrays:
   k-points           NKPTS =     38   k-points in BZ     NKDIM =     38   number of bands    NBANDS=    252
   number of dos      NEDOS =    301   number of ions     NIONS =     32
   non local maximal  LDIM  =      6   non local SUM 2l+1 LMDIM =     18
   total plane-waves  NPLWV =  90720
   max r-space proj   IRMAX =      1   max aug-charges    IRDMAX=   9287
   dimension x,y,z NGX =    70 NGY =   36 NGZ =   36
   dimension x,y,z NGXF=   140 NGYF=   72 NGZF=   72
   support grid    NGXF=   140 NGYF=   72 NGZF=   72
   ions per type =               9   8   6   9
   NGX,Y,Z   is equivalent  to a cutoff of   8.84,  9.10,  9.10 a.u.
   NGXF,Y,Z  is equivalent  to a cutoff of  17.69, 18.19, 18.19 a.u.

 SYSTEM =  unknown system                          
 POSCAR =  Nb-Mo-Ta-W alloy                        

 Startparameter for this run:
   NWRITE =      2    write-flag & timer
   PREC   = accura    normal or accurate (medium, high low for compatibility)
   ISTART =      0    job   : 0-new  1-cont  2-samecut
   ICHARG =      2    charge: 1-file 2-atom 10-const
   ISPIN  =      1    spin polarized calculation?
   LNONCOLLINEAR =      F non collinear calculations
   LSORBIT =      F    spin-orbit coupling
   INIWAV =      1    electr: 0-lowe 1-rand  2-diag
   LASPH  =      F    aspherical Exc in radial PAW
 Electronic Relaxation 1
   ENCUT  =  250.0 eV  18.37 Ry    4.29 a.u.  16.97  8.48  8.48*2*pi/ulx,y,z
   ENINI  =  250.0     initial cutoff
   ENAUG  =  455.7 eV  augmentation charge cutoff
   NELM   =     80;   NELMIN=  2; NELMDL= -5     # of ELM steps 
   EDIFF  = 0.1E-07   stopping-criterion for ELM
   LREAL  =      F    real-space projection
   NLSPLINE    = F    spline interpolate recip. space projectors
   LCOMPAT=      F    compatible to vasp.4.4
   GGA_COMPAT  = T    GGA compatible to vasp.4.4-vasp.4.6
   LMAXPAW     = -100 max onsite density
   LMAXMIX     =    2 max onsite mixed and CHGCAR
   VOSKOWN=      0    Vosko Wilk Nusair interpolation
   ROPT   =    0.00000   0.00000   0.00000   0.00000
 Ionic relaxation
   EDIFFG = -.1E-01   stopping-criterion for IOM
   NSW    =      0    number of steps for IOM
   NBLOCK =      1;   KBLOCK =      1    inner block; outer block 
   IBRION =     -1    ionic relax: 0-MD 1-quasi-New 2-CG
   NFREE  =      0    steps in history (QN), initial steepest desc. (CG)
   ISIF   =      2    stress and relaxation
   IWAVPR =     10    prediction:  0-non 1-charg 2-wave 3-comb
   ISYM   =      2    0-nonsym 1-usesym 2-fastsym
   LCORR  =      T    Harris-Foulkes like correction to forces

   POTIM  = 0.5000    time-step for ionic-motion
   TEIN   =    0.0    initial temperature
   TEBEG  =    0.0;   TEEND  =   0.0 temperature during run
   SMASS  =  -3.00    Nose mass-parameter (am)
   estimated Nose-frequenzy (Omega)   =  0.10E-29 period in steps = 0.13E+47 mass=  -0.396E-26a.u.
   SCALEE = 1.0000    scale energy and forces
   NPACO  =    256;   APACO  = 10.0  distance and # of slots for P.C.
   PSTRESS=    0.0 pullay stress

  Mass of Ions in am
   POMASS =  92.91 95.94180.95183.85
  Ionic Valenz
   ZVAL   =  13.00 14.00 11.00 14.00
  Atomic Wigner-Seitz radii
   RWIGS  =  -1.00 -1.00 -1.00 -1.00
  virtual crystal weights 
   VCA    =   1.00  1.00  1.00  1.00
   NELECT =     421.0000    total number of electrons
   NUPDOWN=      -1.0000    fix difference up-down

 DOS related values:
   EMIN   =  10.00;   EMAX   =-10.00  energy-range for DOS
   EFERMI =   0.00
   ISMEAR =     0;   SIGMA  =   0.02  broadening in eV -4-tet -1-fermi 0-gaus

 Electronic relaxation 2 (details)
   IALGO  =     38    algorithm
   LDIAG  =      T    sub-space diagonalisation (order eigenvalues)
   LSUBROT=      F    optimize rotation matrix (better conditioning)
   TURBO    =      0    0=normal 1=particle mesh
   IRESTART =      0    0=no restart 2=restart with 2 vectors
   NREBOOT  =      0    no. of reboots
   NMIN     =      0    reboot dimension
   EREF     =   0.00    reference energy to select bands
   IMIX   =      4    mixing-type and parameters
     AMIX     =   0.40;   BMIX     =  1.00
     AMIX_MAG =   1.60;   BMIX_MAG =  1.00
     AMIN     =   0.10
     WC   =   100.;   INIMIX=   1;  MIXPRE=   1;  MAXMIX= -45

 Intra band minimization:
   WEIMIN = 0.0000     energy-eigenvalue tresh-hold
   EBREAK =  0.99E-11  absolut break condition
   DEPER  =   0.30     relativ break condition  

   TIME   =   0.40     timestep for ELM

  volume/ion in A,a.u.               =      17.81       120.16
  Fermi-wavevector in a.u.,A,eV,Ry     =   1.480016  2.796824 29.802831  2.190446
  Thomas-Fermi vector in A             =   2.594102
 
 Write flags
   LWAVE        =      F    write WAVECAR
   LDOWNSAMPLE  =      F    k-point downsampling of WAVECAR
   LCHARG       =      F    write CHGCAR
   LVTOT        =      F    write LOCPOT, total local potential
   LVHAR        =      F    write LOCPOT, Hartree potential only
   LELF         =      F    write electronic localiz. function (ELF)
   LORBIT       =      0    0 simple, 1 ext, 2 COOP (PROOUT), +10 PAW based schemes


 Dipole corrections
   LMONO  =      F    monopole corrections only (constant potential shift)
   LDIPOL =      F    correct potential (dipole corrections)
   IDIPOL =      0    1-x, 2-y, 3-z, 4-all directions 
   EPSILON=  1.0000000 bulk dielectric constant

 Core level calculations are selected ICORELEVEL =  1
 Exchange correlation treatment:
   GGA     =    PE    GGA type
   LEXCH   =     8    internal setting for exchange type
   LIBXC   =     F    Libxc                    
   VOSKOWN =     0    Vosko Wilk Nusair interpolation
   LHFCALC =     F    Hartree Fock is set to
   LHFONE  =     F    Hartree Fock one center treatment
   AEXX    =    0.0000 exact exchange contribution

 Linear response parameters
   LEPSILON=     F    determine dielectric tensor
   LRPA    =     F    only Hartree local field effects (RPA)
   LNABLA  =     F    use nabla operator in PAW spheres
   LVEL    =     F    velocity operator in full k-point grid
   CSHIFT  =0.1000    complex shift for real part using Kramers Kronig
   OMEGAMAX=  -1.0    maximum frequency
   DEG_THRESHOLD= 0.2000000E-02 threshold for treating states as degnerate
   RTIME   =   -0.100 relaxation time in fs
  (WPLASMAI=    0.000 imaginary part of plasma frequency in eV, 0.658/RTIME)
   DFIELD  = 0.0000000 0.0000000 0.0000000 field for delta impulse in time
 
  Optional k-point grid parameters
   LKPOINTS_OPT  =     F    use optional k-point grid
   KPOINTS_OPT_MODE=     1    mode for optional k-point grid
 
 Orbital magnetization related:
   ORBITALMAG=     F  switch on orbital magnetization
   LCHIMAG   =     F  perturbation theory with respect to B field
   DQ        =  0.001000  dq finite difference perturbation B field
   LLRAUG    =     F  two centre corrections for induced B field



--------------------------------------------------------------------------------------------------------


 Static calculation
 charge density and potential will be updated during run
 non-spin polarized calculation
 Variant of blocked Davidson
 Davidson routine will perform the subspace rotation
 perform sub-space diagonalisation
    after iterative eigenvector-optimisation
 modified Broyden-mixing scheme, WC =      100.0
 initial mixing is a Kerker type mixing with AMIX =  0.4000 and BMIX =      1.0000
 Hartree-type preconditioning will be used
 using additional bands           41
 reciprocal scheme for non local part
 use partial core corrections
 calculate Harris-corrections to forces 
   (improved forces if not selfconsistent)
 use gradient corrections 
 use of overlap-Matrix (Vanderbilt PP)
 Gauss-broadening in eV      SIGMA  =   0.02


--------------------------------------------------------------------------------------------------------


  energy-cutoff  :      250.00
  volume of cell :      569.78
      direct lattice vectors                 reciprocal lattice vectors
    13.160000000  0.000000000  0.000000000     0.075987842  0.000000000  0.000000000
     0.000000000  6.580000000  0.000000000     0.000000000  0.151975684  0.000000000
     0.000000000  0.000000000  6.580000000     0.000000000  0.000000000  0.151975684

  length of vectors
    13.160000000  6.580000000  6.580000000     0.075987842  0.151975684  0.151975684


 
 k-points in units of 2pi/SCALE and weight: K-Spacing Value to Generate K-Mesh: 0.03
   0.00000000  0.00000000  0.00000000       0.013
   0.02532928  0.00000000  0.00000000       0.027
   0.00000000  0.03039514  0.00000000       0.027
   0.00000000  0.00000000  0.03039514       0.027
   0.02532928  0.03039514  0.00000000       0.027
   0.02532928  0.00000000  0.03039514       0.027
   0.02532928 -0.03039514  0.00000000       0.027
   0.02532928  0.00000000 -0.03039514       0.027
   0.00000000  0.06079027  0.00000000       0.027
   0.00000000  0.00000000  0.06079027       0.027
   0.02532928  0.06079027  0.00000000       0.027
   0.02532928  0.00000000  0.06079027       0.027
   0.02532928 -0.06079027  0.00000000       0.027
   0.02532928  0.00000000 -0.06079027       0.027
   0.00000000  0.03039514  0.03039514       0.027
   0.00000000 -0.03039514  0.03039514       0.027
   0.02532928  0.03039514  0.03039514       0.027
   0.02532928 -0.03039514  0.03039514       0.027
   0.02532928 -0.03039514 -0.03039514       0.027
   0.02532928  0.03039514 -0.03039514       0.027
   0.00000000  0.06079027  0.03039514       0.027
   0.00000000 -0.03039514  0.06079027       0.027
   0.00000000 -0.06079027  0.03039514       0.027
   0.00000000  0.03039514  0.06079027       0.027
   0.02532928  0.06079027  0.03039514       0.027
   0.02532928 -0.03039514  0.06079027       0.027
   0.02532928 -0.06079027 -0.03039514       0.027
   0.02532928  0.03039514 -0.06079027       0.027
  -0.02532928 -0.06079027  0.03039514       0.027
  -0.02532928  0.03039514  0.06079027       0.027
  -0.02532928  0.06079027 -0.03039514       0.027
  -0.02532928 -0.03039514 -0.06079027       0.027
   0.00000000  0.06079027  0.06079027       0.027
   0.00000000 -0.06079027  0.06079027       0.027
   0.02532928  0.06079027  0.06079027       0.027
   0.02532928 -0.06079027  0.06079027       0.027
   0.02532928 -0.06079027 -0.06079027       0.027
   0.02532928  0.06079027 -0.06079027       0.027
 
 k-points in reciprocal lattice and weights: K-Spacing Value to Generate K-Mesh: 0.03
   0.00000000  0.00000000  0.00000000       0.013
   0.33333333  0.00000000  0.00000000       0.027
   0.00000000  0.20000000  0.00000000       0.027
   0.00000000  0.00000000  0.20000000       0.027
   0.33333333  0.20000000  0.00000000       0.027
   0.33333333  0.00000000  0.20000000       0.027
   0.33333333 -0.20000000  0.00000000       0.027
   0.33333333  0.00000000 -0.20000000       0.027
   0.00000000  0.40000000  0.00000000       0.027
   0.00000000  0.00000000  0.40000000       0.027
   0.33333333  0.40000000  0.00000000       0.027
   0.33333333  0.00000000  0.40000000       0.027
   0.33333333 -0.40000000  0.00000000       0.027
   0.33333333  0.00000000 -0.40000000       0.027
   0.00000000  0.20000000  0.20000000       0.027
   0.00000000 -0.20000000  0.20000000       0.027
   0.33333333  0.20000000  0.20000000       0.027
   0.33333333 -0.20000000  0.20000000       0.027
   0.33333333 -0.20000000 -0.20000000       0.027
   0.33333333  0.20000000 -0.20000000       0.027
   0.00000000  0.40000000  0.20000000       0.027
   0.00000000 -0.20000000  0.40000000       0.027
   0.00000000 -0.40000000  0.20000000       0.027
   0.00000000  0.20000000  0.40000000       0.027
   0.33333333  0.40000000  0.20000000       0.027
   0.33333333 -0.20000000  0.40000000       0.027
   0.33333333 -0.40000000 -0.20000000       0.027
   0.33333333  0.20000000 -0.40000000       0.027
  -0.33333333 -0.40000000  0.20000000       0.027
  -0.33333333  0.20000000  0.40000000       0.027
  -0.33333333  0.40000000 -0.20000000       0.027
  -0.33333333 -0.20000000 -0.40000000       0.027
   0.00000000  0.40000000  0.40000000       0.027
   0.00000000 -0.40000000  0.40000000       0.027
   0.33333333  0.40000000  0.40000000       0.027
   0.33333333 -0.40000000  0.40000000       0.027
   0.33333333 -0.40000000 -0.40000000       0.027
   0.33333333  0.40000000 -0.40000000       0.027
 
 position of ions in fractional coordinates (direct lattice) 
   0.37500000  0.25000000  0.25000000
   0.12500000  0.25000000  0.25000000
   0.37500000  0.25000000  0.75000000
   0.00000000  0.00000000  0.00000000
   0.12500000  0.75000000  0.75000000
   0.50000000  0.00000000  0.50000000
   0.50000000  0.50000000  0.50000000
   0.62500000  0.75000000  0.75000000
   0.25000000  0.00000000  0.00000000
   0.75000000  0.00000000  0.00000000
   0.37500000  0.75000000  0.25000000
   0.75000000  0.00000000  0.50000000
   0.25000000  0.50000000  0.50000000
   0.00000000  0.00000000  0.50000000
   0.50000000  0.50000000  0.00000000
   0.25000000  0.50000000  0.00000000
   0.87500000  0.75000000  0.25000000
   0.62500000  0.25000000  0.75000000
   0.12500000  0.75000000  0.25000000
   0.37500000  0.75000000  0.75000000
   0.00000000  0.50000000  0.50000000
   0.75000000  0.50000000  0.00000000
   0.00000000  0.50000000  0.00000000
   0.87500000  0.75000000  0.75000000
   0.87500000  0.25000000  0.25000000
   0.50000000  0.00000000  0.00000000
   0.62500000  0.25000000  0.25000000
   0.25000000  0.00000000  0.50000000
   0.62500000  0.75000000  0.25000000
   0.12500000  0.25000000  0.75000000
   0.75000000  0.50000000  0.50000000
   0.87500000  0.25000000  0.75000000
 
 position of ions in cartesian coordinates  (Angst):
   4.93500000  1.64500000  1.64500000
   1.64500000  1.64500000  1.64500000
   4.93500000  1.64500000  4.93500000
   0.00000000  0.00000000  0.00000000
   1.64500000  4.93500000  4.93500000
   6.58000000  0.00000000  3.29000000
   6.58000000  3.29000000  3.29000000
   8.22500000  4.93500000  4.93500000
   3.29000000  0.00000000  0.00000000
   9.87000000  0.00000000  0.00000000
   4.93500000  4.93500000  1.64500000
   9.87000000  0.00000000  3.29000000
   3.29000000  3.29000000  3.29000000
   0.00000000  0.00000000  3.29000000
   6.58000000  3.29000000  0.00000000
   3.29000000  3.29000000  0.00000000
  11.51500000  4.93500000  1.64500000
   8.22500000  1.64500000  4.93500000
   1.64500000  4.93500000  1.64500000
   4.93500000  4.93500000  4.93500000
   0.00000000  3.29000000  3.29000000
   9.87000000  3.29000000  0.00000000
   0.00000000  3.29000000  0.00000000
  11.51500000  4.93500000  4.93500000
  11.51500000  1.64500000  1.64500000
   6.58000000  0.00000000  0.00000000
   8.22500000  1.64500000  1.64500000
   3.29000000  0.00000000  3.29000000
   8.22500000  4.93500000  1.64500000
   1.64500000  1.64500000  4.93500000
   9.87000000  3.29000000  3.29000000
  11.51500000  1.64500000  4.93500000
 


--------------------------------------------------------------------------------------------------------


 k-point   1 :   0.0000 0.0000 0.0000  plane waves:    5077
 k-point   2 :   0.3333 0.0000 0.0000  plane waves:    5118
 k-point   3 :   0.0000 0.2000 0.0000  plane waves:    5099
 k-point   4 :   0.0000 0.0000 0.2000  plane waves:    5099
 k-point   5 :   0.3333 0.2000 0.0000  plane waves:    5140
 k-point   6 :   0.3333 0.0000 0.2000  plane waves:    5140
 k-point   7 :   0.3333-0.2000 0.0000  plane waves:    5140
 k-point   8 :   0.3333 0.0000-0.2000  plane waves:    5140
 k-point   9 :   0.0000 0.4000 0.0000  plane waves:    5119
 k-point  10 :   0.0000 0.0000 0.4000  plane waves:    5119
 k-point  11 :   0.3333 0.4000 0.0000  plane waves:    5127
 k-point  12 :   0.3333 0.0000 0.4000  plane waves:    5127
 k-point  13 :   0.3333-0.4000 0.0000  plane waves:    5127
 k-point  14 :   0.3333 0.0000-0.4000  plane waves:    5127
 k-point  15 :   0.0000 0.2000 0.2000  plane waves:    5124
 k-point  16 :   0.0000-0.2000 0.2000  plane waves:    5124
 k-point  17 :   0.3333 0.2000 0.2000  plane waves:    5117
 k-point  18 :   0.3333-0.2000 0.2000  plane waves:    5117
 k-point  19 :   0.3333-0.2000-0.2000  plane waves:    5117
 k-point  20 :   0.3333 0.2000-0.2000  plane waves:    5117
 k-point  21 :   0.0000 0.4000 0.2000  plane waves:    5118
 k-point  22 :   0.0000-0.2000 0.4000  plane waves:    5118
 k-point  23 :   0.0000-0.4000 0.2000  plane waves:    5118
 k-point  24 :   0.0000 0.2000 0.4000  plane waves:    5118
 k-point  25 :   0.3333 0.4000 0.2000  plane waves:    5105
 k-point  26 :   0.3333-0.2000 0.4000  plane waves:    5105
 k-point  27 :   0.3333-0.4000-0.2000  plane waves:    5105
 k-point  28 :   0.3333 0.2000-0.4000  plane waves:    5105
 k-point  29 :  -0.3333-0.4000 0.2000  plane waves:    5105
 k-point  30 :  -0.3333 0.2000 0.4000  plane waves:    5105
 k-point  31 :  -0.3333 0.4000-0.2000  plane waves:    5105
 k-point  32 :  -0.3333-0.2000-0.4000  plane waves:    5105
 k-point  33 :   0.0000 0.4000 0.4000  plane waves:    5098
 k-point  34 :   0.0000-0.4000 0.4000  plane waves:    5098
 k-point  35 :   0.3333 0.4000 0.4000  plane waves:    5088
 k-point  36 :   0.3333-0.4000 0.4000  plane waves:    5088
 k-point  37 :   0.3333-0.4000-0.4000  plane waves:    5088
 k-point  38 :   0.3333 0.4000-0.4000  plane waves:    5088

 maximum and minimum number of plane-waves per node :       464      388

 maximum number of plane-waves:      5140
 maximum index in each direction: 
   IXMAX=   17   IYMAX=    8   IZMAX=    8
   IXMIN=  -17   IYMIN=   -8   IZMIN=   -8


 parallel 3D FFT for wavefunctions:
    minimum data exchange during FFTs selected (reduces bandwidth)
 parallel 3D FFT for charge:
    minimum data exchange during FFTs selected (reduces bandwidth)


 total amount of memory used by VASP MPI-rank0    61379. kBytes
=======================================================================

   base      :      30000. kBytes
   nonl-proj :       9945. kBytes
   fftplans  :        778. kBytes
   grid      :       1458. kBytes
   one-center:         46. kBytes
   wavefun   :      19152. kBytes
 
     INWAV:  cpu time      0.0000: real time      0.0000
 Broyden mixing: mesh for mixing (old mesh)
   NGX = 33   NGY = 17   NGZ = 17
  (NGX  =140   NGY  = 72   NGZ  = 72)
  gives a total of   9537 points

 initial charge density was supplied:
 charge density of overlapping atoms calculated
 number of electron     421.0000000 magnetization 
 keeping initial charge density in first step


--------------------------------------------------------------------------------------------------------


 Maximum index for augmentation-charges          517 (set IRDMAX)


--------------------------------------------------------------------------------------------------------


 First call to EWALD:  gamma=   0.214
 Maximum number of real-space cells 2x 3x 3
 Maximum number of reciprocal cells 4x 2x 2

    FEWALD:  cpu time      0.0015: real time      0.0015


--------------------------------------- Iteration      1(   1)  ---------------------------------------


    POTLOK:  cpu time      0.0099: real time      0.0264
    SETDIJ:  cpu time      0.0028: real time      0.0029
     EDDAV:  cpu time      6.4296: real time      6.4522
       DOS:  cpu time      0.0068: real time      0.0068
    --------------------------------------------
      LOOP:  cpu time      6.4492: real time      6.4883

 eigenvalue-minimisations  : 19560
 total energy-change (2. order) : 0.4077434E+04  (-0.1649088E+05)
 number of electron     421.0000000 magnetization 
 augmentation part      421.0000000 magnetization 

 Free energy of the ion-electron system (eV)
  ---------------------------------------------------
  alpha Z        PSCENC =      3602.23222236
  Ewald energy   TEWEN  =    -44215.51055499
  -Hartree energ DENC   =     -8370.19323053
  -exchange      EXHF   =         0.00000000
  -V(xc)+E(xc)   XCENC  =      1699.41541636
  PAW double counting   =     41183.59126599   -40562.48264458
  entropy T*S    EENTRO =        -0.00101163
  eigenvalues    EBANDS =     -1224.44581451
  atomic energy  EATOM  =     51964.82845987
  Solvation  Ediel_sol  =         0.00000000
  ---------------------------------------------------
  free energy    TOTEN  =      4077.43410833 eV

  energy without entropy =     4077.43511996  energy(sigma->0) =     4077.43461415


--------------------------------------------------------------------------------------------------------




--------------------------------------- Iteration      1(   2)  ---------------------------------------


     EDDAV:  cpu time      6.3356: real time      6.3580
       DOS:  cpu time      0.0052: real time      0.0053
    --------------------------------------------
      LOOP:  cpu time      6.3408: real time      6.3633

 eigenvalue-minimisations  : 19336
 total energy-change (2. order) :-0.4067002E+04  (-0.3951504E+04)
 number of electron     421.0000000 magnetization 
 augmentation part      421.0000000 magnetization 

 Free energy of the ion-electron system (eV)
  ---------------------------------------------------
  alpha Z        PSCENC =      3602.23222236
  Ewald energy   TEWEN  =    -44215.51055499
  -Hartree energ DENC   =     -8370.19323053
  -exchange      EXHF   =         0.00000000
  -V(xc)+E(xc)   XCENC  =      1699.41541636
  PAW double counting   =     41183.59126599   -40562.48264458
  entropy T*S    EENTRO =        -0.00379192
  eigenvalues    EBANDS =     -5291.44505445
  atomic energy  EATOM  =     51964.82845987
  Solvation  Ediel_sol  =         0.00000000
  ---------------------------------------------------
  free energy    TOTEN  =        10.43208809 eV

  energy without entropy =       10.43588002  energy(sigma->0) =       10.43398405


--------------------------------------------------------------------------------------------------------




--------------------------------------- Iteration      1(   3)  ---------------------------------------


     EDDAV:  cpu time      8.5180: real time      8.5471
       DOS:  cpu time      0.0058: real time      0.0058
    --------------------------------------------
      LOOP:  cpu time      8.5238: real time      8.5528

 eigenvalue-minimisations  : 28776
 total energy-change (2. order) :-0.3693968E+03  (-0.3479732E+03)
 number of electron     421.0000000 magnetization 
 augmentation part      421.0000000 magnetization 

 Free energy of the ion-electron system (eV)
  ---------------------------------------------------
  alpha Z        PSCENC =      3602.23222236
  Ewald energy   TEWEN  =    -44215.51055499
  -Hartree energ DENC   =     -8370.19323053
  -exchange      EXHF   =         0.00000000
  -V(xc)+E(xc)   XCENC  =      1699.41541636
  PAW double counting   =     41183.59126599   -40562.48264458
  entropy T*S    EENTRO =        -0.00387729
  eigenvalues    EBANDS =     -5660.84176038
  atomic energy  EATOM  =     51964.82845987
  Solvation  Ediel_sol  =         0.00000000
  ---------------------------------------------------
  free energy    TOTEN  =      -358.96470320 eV

  energy without entropy =     -358.96082591  energy(sigma->0) =     -358.96276456


--------------------------------------------------------------------------------------------------------




--------------------------------------- Iteration      1(   4)  ---------------------------------------


     EDDAV:  cpu time      8.9255: real time      8.9568
       DOS:  cpu time      0.0055: real time      0.0055
    --------------------------------------------
      LOOP:  cpu time      8.9310: real time      8.9623

 eigenvalue-minimisations  : 30264
 total energy-change (2. order) :-0.2724425E+02  (-0.2635206E+02)
 number of electron     421.0000000 magnetization 
 augmentation part      421.0000000 magnetization 

 Free energy of the ion-electron system (eV)
  ---------------------------------------------------
  alpha Z        PSCENC =      3602.23222236
  Ewald energy   TEWEN  =    -44215.51055499
  -Hartree energ DENC   =     -8370.19323053
  -exchange      EXHF   =         0.00000000
  -V(xc)+E(xc)   XCENC  =      1699.41541636
  PAW double counting   =     41183.59126599   -40562.48264458
  entropy T*S    EENTRO =        -0.00661349
  eigenvalues    EBANDS =     -5688.08326981
  atomic energy  EATOM  =     51964.82845987
  Solvation  Ediel_sol  =         0.00000000
  ---------------------------------------------------
  free energy    TOTEN  =      -386.20894883 eV

  energy without entropy =     -386.20233534  energy(sigma->0) =     -386.20564209


--------------------------------------------------------------------------------------------------------




--------------------------------------- Iteration      1(   5)  ---------------------------------------


     EDDAV:  cpu time      9.3649: real time      9.4020
       DOS:  cpu time      0.0065: real time      0.0065
    CHARGE:  cpu time      0.1837: real time      0.1843
    MIXING:  cpu time      0.0003: real time      0.0003
    --------------------------------------------
      LOOP:  cpu time      9.5555: real time      9.5931

 eigenvalue-minimisations  : 30184
 total energy-change (2. order) :-0.1551907E+01  (-0.1536997E+01)
 number of electron     420.9999759 magnetization 
 augmentation part       85.1382475 magnetization 

 Broyden mixing:
  rms(total) = 0.74290E+01    rms(broyden)= 0.74274E+01
  rms(prec ) = 0.76651E+01
  weight for this iteration     100.00

 Free energy of the ion-electron system (eV)
  ---------------------------------------------------
  alpha Z        PSCENC =      3602.23222236
  Ewald energy   TEWEN  =    -44215.51055499
  -Hartree energ DENC   =     -8370.19323053
  -exchange      EXHF   =         0.00000000
  -V(xc)+E(xc)   XCENC  =      1699.41541636
  PAW double counting   =     41183.59126599   -40562.48264458
  entropy T*S    EENTRO =        -0.00711231
  eigenvalues    EBANDS =     -5689.63467777
  atomic energy  EATOM  =     51964.82845987
  Solvation  Ediel_sol  =         0.00000000
  ---------------------------------------------------
  free energy    TOTEN  =      -387.76085561 eV

  energy without entropy =     -387.75374330  energy(sigma->0) =     -387.75729946


--------------------------------------------------------------------------------------------------------




--------------------------------------- Iteration      1(   6)  ---------------------------------------


    POTLOK:  cpu time      0.0075: real time      0.0077
    SETDIJ:  cpu time      0.0022: real time      0.0022
     EDDAV:  cpu time      7.2897: real time      7.3143
       DOS:  cpu time      0.0067: real time      0.0067
    CHARGE:  cpu time      0.1833: real time      0.1838
    MIXING:  cpu time      0.0004: real time      0.0004
    --------------------------------------------
      LOOP:  cpu time      7.4898: real time      7.5151

 eigenvalue-minimisations  : 23464
 total energy-change (2. order) : 0.1367216E+02  (-0.4991495E+01)
 number of electron     420.9999746 magnetization 
 augmentation part       88.5829346 magnetization 

 Broyden mixing:
  rms(total) = 0.28317E+01    rms(broyden)= 0.28311E+01
  rms(prec ) = 0.35467E+01
  weight for this iteration     100.00

 eigenvalues of (default mixing * dielectric matrix)
  average eigenvalue GAMMA=   1.4373
  1.4373

 Free energy of the ion-electron system (eV)
  ---------------------------------------------------
  alpha Z        PSCENC =      3602.23222236
  Ewald energy   TEWEN  =    -44215.51055499
  -Hartree energ DENC   =     -7908.26821762
  -exchange      EXHF   =         0.00000000
  -V(xc)+E(xc)   XCENC  =      1676.69777062
  PAW double counting   =     48302.11454997   -47737.14259602
  entropy T*S    EENTRO =        -0.00545216
  eigenvalues    EBANDS =     -6059.03487846
  atomic energy  EATOM  =     51964.82845987
  Solvation  Ediel_sol  =         0.00000000
  ---------------------------------------------------
  free energy    TOTEN  =      -374.08869644 eV

  energy without entropy =     -374.08324428  energy(sigma->0) =     -374.08597036


--------------------------------------------------------------------------------------------------------




--------------------------------------- Iteration      1(   7)  ---------------------------------------


    POTLOK:  cpu time      0.0075: real time      0.0076
    SETDIJ:  cpu time      0.0022: real time      0.0022
     EDDAV:  cpu time      8.4517: real time      8.4811
       DOS:  cpu time      0.0070: real time      0.0070
    CHARGE:  cpu time      0.1843: real time      0.1848
    MIXING:  cpu time      0.0004: real time      0.0004
    --------------------------------------------
      LOOP:  cpu time      8.6531: real time      8.6832

 eigenvalue-minimisations  : 27944
 total energy-change (2. order) :-0.1635032E+02  (-0.8070605E+01)
 number of electron     420.9999746 magnetization 
 augmentation part       88.6688611 magnetization 

 Broyden mixing:
  rms(total) = 0.22944E+01    rms(broyden)= 0.22923E+01
  rms(prec ) = 0.66850E+01
  weight for this iteration     100.00

 eigenvalues of (default mixing * dielectric matrix)
  average eigenvalue GAMMA=   0.9833
  1.5479  0.4188

 Free energy of the ion-electron system (eV)
  ---------------------------------------------------
  alpha Z        PSCENC =      3602.23222236
  Ewald energy   TEWEN  =    -44215.51055499
  -Hartree energ DENC   =     -7780.89851235
  -exchange      EXHF   =         0.00000000
  -V(xc)+E(xc)   XCENC  =      1669.18250957
  PAW double counting   =     52444.02681496   -51896.61720857
  entropy T*S    EENTRO =        -0.00665349
  eigenvalues    EBANDS =     -6177.67609074
  atomic energy  EATOM  =     51964.82845987
  Solvation  Ediel_sol  =         0.00000000
  ---------------------------------------------------
  free energy    TOTEN  =      -390.43901339 eV

  energy without entropy =     -390.43235990  energy(sigma->0) =     -390.43568664


--------------------------------------------------------------------------------------------------------




--------------------------------------- Iteration      1(   8)  ---------------------------------------


    POTLOK:  cpu time      0.0075: real time      0.0077
    SETDIJ:  cpu time      0.0022: real time      0.0022
     EDDAV:  cpu time      8.1862: real time      8.2138
       DOS:  cpu time      0.0059: real time      0.0059
    CHARGE:  cpu time      0.1831: real time      0.1838
    MIXING:  cpu time      0.0004: real time      0.0004
    --------------------------------------------
      LOOP:  cpu time      8.3853: real time      8.4137

 eigenvalue-minimisations  : 27536
 total energy-change (2. order) : 0.2179615E+02  (-0.5810594E+01)
 number of electron     420.9999750 magnetization 
 augmentation part       88.9457589 magnetization 

 Broyden mixing:
  rms(total) = 0.90083E+00    rms(broyden)= 0.89743E+00
  rms(prec ) = 0.14232E+01
  weight for this iteration     100.00

 eigenvalues of (default mixing * dielectric matrix)
  average eigenvalue GAMMA=   0.8758
  1.6675  0.6879  0.2721

 Free energy of the ion-electron system (eV)
  ---------------------------------------------------
  alpha Z        PSCENC =      3602.23222236
  Ewald energy   TEWEN  =    -44215.51055499
  -Hartree energ DENC   =     -7711.80798948
  -exchange      EXHF   =         0.00000000
  -V(xc)+E(xc)   XCENC  =      1666.08972487
  PAW double counting   =     54012.78262379   -53474.42980570
  entropy T*S    EENTRO =        -0.00395470
  eigenvalues    EBANDS =     -6212.82358533
  atomic energy  EATOM  =     51964.82845987
  Solvation  Ediel_sol  =         0.00000000
  ---------------------------------------------------
  free energy    TOTEN  =      -368.64285931 eV

  energy without entropy =     -368.63890462  energy(sigma->0) =     -368.64088196


--------------------------------------------------------------------------------------------------------




--------------------------------------- Iteration      1(   9)  ---------------------------------------


    POTLOK:  cpu time      0.0075: real time      0.0076
    SETDIJ:  cpu time      0.0022: real time      0.0022
     EDDAV:  cpu time      7.6966: real time      7.7232
       DOS:  cpu time      0.0055: real time      0.0055
    CHARGE:  cpu time      0.1827: real time      0.1832
    MIXING:  cpu time      0.0004: real time      0.0004
    --------------------------------------------
      LOOP:  cpu time      7.8949: real time      7.9222

 eigenvalue-minimisations  : 25336
 total energy-change (2. order) : 0.4471011E+00  (-0.1572997E+01)
 number of electron     420.9999749 magnetization 
 augmentation part       89.4948825 magnetization 

 Broyden mixing:
  rms(total) = 0.57740E+00    rms(broyden)= 0.57645E+00
  rms(prec ) = 0.69602E+00
  weight for this iteration     100.00

 eigenvalues of (default mixing * dielectric matrix)
  average eigenvalue GAMMA=   0.8608
  1.5662  1.2125  0.2651  0.3992

 Free energy of the ion-electron system (eV)
  ---------------------------------------------------
  alpha Z        PSCENC =      3602.23222236
  Ewald energy   TEWEN  =    -44215.51055499
  -Hartree energ DENC   =     -7673.74404059
  -exchange      EXHF   =         0.00000000
  -V(xc)+E(xc)   XCENC  =      1664.48201494
  PAW double counting   =     54804.31484491   -54270.36387529
  entropy T*S    EENTRO =        -0.00437017
  eigenvalues    EBANDS =     -6244.43045929
  atomic energy  EATOM  =     51964.82845987
  Solvation  Ediel_sol  =         0.00000000
  ---------------------------------------------------
  free energy    TOTEN  =      -368.19575825 eV

  energy without entropy =     -368.19138809  energy(sigma->0) =     -368.19357317


--------------------------------------------------------------------------------------------------------




--------------------------------------- Iteration      1(  10)  ---------------------------------------


    POTLOK:  cpu time      0.0074: real time      0.0076
    SETDIJ:  cpu time      0.0023: real time      0.0023
     EDDAV:  cpu time      7.7450: real time      7.7718
       DOS:  cpu time      0.0060: real time      0.0060
    CHARGE:  cpu time      0.1829: real time      0.1835
    MIXING:  cpu time      0.0004: real time      0.0004
    --------------------------------------------
      LOOP:  cpu time      7.9440: real time      7.9715

 eigenvalue-minimisations  : 25200
 total energy-change (2. order) : 0.7067724E-01  (-0.2447727E+00)
 number of electron     420.9999751 magnetization 
 augmentation part       89.3387870 magnetization 

 Broyden mixing:
  rms(total) = 0.38737E+00    rms(broyden)= 0.38708E+00
  rms(prec ) = 0.46254E+00
  weight for this iteration     100.00

 eigenvalues of (default mixing * dielectric matrix)
  average eigenvalue GAMMA=   1.0134
  1.8908  1.8908  0.6084  0.2700  0.4069

 Free energy of the ion-electron system (eV)
  ---------------------------------------------------
  alpha Z        PSCENC =      3602.23222236
  Ewald energy   TEWEN  =    -44215.51055499
  -Hartree energ DENC   =     -7678.50726203
  -exchange      EXHF   =         0.00000000
  -V(xc)+E(xc)   XCENC  =      1664.71299380
  PAW double counting   =     54948.06017060   -54411.93857817
  entropy T*S    EENTRO =        -0.00479885
  eigenvalues    EBANDS =     -6241.99773362
  atomic energy  EATOM  =     51964.82845987
  Solvation  Ediel_sol  =         0.00000000
  ---------------------------------------------------
  free energy    TOTEN  =      -368.12508102 eV

  energy without entropy =     -368.12028217  energy(sigma->0) =     -368.12268159


--------------------------------------------------------------------------------------------------------




--------------------------------------- Iteration      1(  11)  ---------------------------------------


    POTLOK:  cpu time      0.0074: real time      0.0076
    SETDIJ:  cpu time      0.0022: real time      0.0022
     EDDAV:  cpu time      7.5096: real time      7.5353
       DOS:  cpu time      0.0052: real time      0.0053
    CHARGE:  cpu time      0.1818: real time      0.1824
    MIXING:  cpu time      0.0004: real time      0.0004
    --------------------------------------------
      LOOP:  cpu time      7.7067: real time      7.7332

 eigenvalue-minimisations  : 24448
 total energy-change (2. order) :-0.7550683E-02  (-0.7267616E-01)
 number of electron     420.9999751 magnetization 
 augmentation part       89.2049767 magnetization 

 Broyden mixing:
  rms(total) = 0.19445E+00    rms(broyden)= 0.19425E+00
  rms(prec ) = 0.38621E+00
  weight for this iteration     100.00

 eigenvalues of (default mixing * dielectric matrix)
  average eigenvalue GAMMA=   1.0275
  2.4652  1.7846  0.8049  0.2706  0.4722  0.3675

 Free energy of the ion-electron system (eV)
  ---------------------------------------------------
  alpha Z        PSCENC =      3602.23222236
  Ewald energy   TEWEN  =    -44215.51055499
  -Hartree energ DENC   =     -7686.39932463
  -exchange      EXHF   =         0.00000000
  -V(xc)+E(xc)   XCENC  =      1665.04984702
  PAW double counting   =     55062.78680179   -54523.11970038
  entropy T*S    EENTRO =        -0.00467912
  eigenvalues    EBANDS =     -6237.99570362
  atomic energy  EATOM  =     51964.82845987
  Solvation  Ediel_sol  =         0.00000000
  ---------------------------------------------------
  free energy    TOTEN  =      -368.13263170 eV

  energy without entropy =     -368.12795259  energy(sigma->0) =     -368.13029214


--------------------------------------------------------------------------------------------------------




--------------------------------------- Iteration      1(  12)  ---------------------------------------


    POTLOK:  cpu time      0.0075: real time      0.0077
    SETDIJ:  cpu time      0.0022: real time      0.0022
     EDDAV:  cpu time      7.6459: real time      7.6717
       DOS:  cpu time      0.0058: real time      0.0059
    CHARGE:  cpu time      0.1830: real time      0.1836
    MIXING:  cpu time      0.0004: real time      0.0004
    --------------------------------------------
      LOOP:  cpu time      7.8449: real time      7.8715

 eigenvalue-minimisations  : 25032
 total energy-change (2. order) : 0.2863519E-01  (-0.3616506E-01)
 number of electron     420.9999751 magnetization 
 augmentation part       89.1703711 magnetization 

 Broyden mixing:
  rms(total) = 0.10460E+00    rms(broyden)= 0.10435E+00
  rms(prec ) = 0.24148E+00
  weight for this iteration     100.00

 eigenvalues of (default mixing * dielectric matrix)
  average eigenvalue GAMMA=   0.9582
[...]
    127       4.6840      2.00000
    128       4.7972      2.00000
    129       4.9576      2.00000
    130       5.1236      2.00000
    131       5.4510      2.00000
    132       5.6141      2.00000
    133       5.7755      2.00000
    134       5.8755      2.00000
    135       5.9926      2.00000
    136       6.0492      2.00000
    137       6.1905      2.00000
    138       6.2073      2.00000
    139       6.3178      2.00000
    140       6.3546      2.00000
    141       6.3842      2.00000
    142       6.4356      2.00000
    143       6.4791      2.00000
    144       6.5089      2.00000
    145       6.5387      2.00000
    146       6.5941      2.00000
    147       6.6226      2.00000
    148       6.6539      2.00000
    149       6.7084      2.00000
    150       6.7325      2.00000
    151       6.7585      2.00000
    152       6.7661      2.00000
    153       6.8622      2.00000
    154       6.8854      2.00000
    155       6.8996      2.00000
    156       7.0180      2.00000
    157       7.0446      2.00000
    158       7.0724      2.00000
    159       7.1398      2.00000
    160       7.2129      2.00000
    161       7.2546      2.00000
    162       7.3665      2.00000
    163       7.3847      2.00000
    164       7.4311      2.00000
    165       7.4679      2.00000
    166       7.4792      2.00000
    167       7.5037      2.00000
    168       7.5475      2.00000
    169       7.5932      2.00000
    170       7.6166      2.00000
    171       7.6536      2.00000
    172       7.6750      2.00000
    173       7.7121      2.00000
    174       7.7292      2.00000
    175       7.7533      2.00000
    176       7.7667      2.00000
    177       7.8144      2.00000
    178       7.8687      2.00000
    179       7.8800      2.00000
    180       7.9049      2.00000
    181       7.9269      2.00000
    182       7.9653      2.00000
    183       7.9743      2.00000
    184       7.9946      2.00000
    185       8.0141      2.00000
    186       8.0405      2.00000
    187       8.0443      2.00000
    188       8.0771      2.00000
    189       8.1039      2.00000
    190       8.1411      2.00000
    191       8.1549      2.00000
    192       8.1738      2.00000
    193       8.1983      2.00000
    194       8.2241      2.00000
    195       8.2483      2.00000
    196       8.2769      2.00000
    197       8.3009      2.00000
    198       8.3135      2.00000
    199       8.3542      2.00000
    200       8.3883      2.00000
    201       8.4249      2.00000
    202       8.4589      2.00000
    203       8.4944      2.00000
    204       8.5148      2.00000
    205       8.5407      2.00000
    206       8.5958      2.00000
    207       8.6240      2.00000
    208       8.6538      2.00000
    209       8.6733      2.00000
    210       8.6909      2.00000
    211       8.7024      2.00000
    212       8.7521      2.00000
    213       8.7923      2.00000
    214       8.8622      2.00000
    215       9.1018      2.00000
    216       9.2572      2.00000
    217       9.2671      2.00000
    218       9.9526      0.00000
    219      10.8634      0.00000
    220      11.0557      0.00000
    221      11.0967      0.00000
    222      11.1471      0.00000
    223      11.1911      0.00000
    224      11.2330      0.00000
    225      11.2838      0.00000
    226      11.3361      0.00000
    227      11.4321      0.00000
    228      11.4565      0.00000
    229      11.4893      0.00000
    230      11.5235      0.00000
    231      11.5738      0.00000
    232      11.5978      0.00000
    233      11.6635      0.00000
    234      11.6872      0.00000
    235      11.7163      0.00000
    236      11.7562      0.00000
    237      11.7832      0.00000
    238      11.8020      0.00000
    239      11.8097      0.00000
    240      11.8728      0.00000
    241      11.8961      0.00000
    242      11.9216      0.00000
    243      11.9726      0.00000
    244      11.9841      0.00000
    245      12.0337      0.00000
    246      12.0776      0.00000
    247      12.1135      0.00000
    248      12.1434      0.00000
    249      12.1504      0.00000
    250      12.1921      0.00000
    251      12.2889      0.00000
    252      12.3092      0.00000


--------------------------------------------------------------------------------------------------------


 soft charge-density along one line, spin component           1
         0         1         2         3         4         5         6         7         8         9
 total charge-density along one line
 
 pseudopotential strength for first ion, spin component:           1
  5.767 -20.327   0.002  -0.001  -0.001  -0.004   0.002   0.002
-20.327   9.241   0.003  -0.002  -0.001  -0.000   0.000   0.000
  0.002   0.003  -9.788   0.001   0.002   6.031  -0.001  -0.002
 -0.001  -0.002   0.001  -9.784   0.001  -0.001   6.028  -0.001
 -0.001  -0.001   0.002   0.001  -9.787  -0.002  -0.001   6.030
 -0.004  -0.000   6.031  -0.001  -0.002   7.923   0.001   0.001
  0.002   0.000  -0.001   6.028  -0.001   0.001   7.925   0.001
  0.002   0.000  -0.002  -0.001   6.030   0.001   0.001   7.923
  0.001   0.000  -0.001   0.000   0.002   0.002  -0.000  -0.002
  0.001   0.000  -0.001   0.002   0.000   0.001  -0.002  -0.000
  0.001   0.000  -0.001  -0.001   0.000   0.001   0.001  -0.000
  0.001   0.000   0.000  -0.001  -0.001  -0.000   0.001   0.001
  0.000   0.000  -0.001   0.000  -0.000   0.002  -0.000   0.001
  0.001   0.001  -0.001   0.000   0.002   0.002  -0.000  -0.003
  0.001   0.000  -0.001   0.002   0.000   0.002  -0.003  -0.000
  0.002   0.001  -0.001  -0.001   0.000   0.001   0.001  -0.000
  0.001   0.000   0.000  -0.001  -0.001  -0.000   0.002   0.002
  0.000   0.000  -0.002   0.000  -0.000   0.002  -0.000   0.001
 total augmentation occupancy for first ion, spin component:           1
  1.995  -0.048   0.000  -0.000   0.000   0.000   0.000   0.000   0.004   0.004   0.002   0.010   0.001  -0.004  -0.003  -0.002
 -0.048   1.325   0.001   0.001   0.002  -0.002   0.001  -0.003   0.006   0.006   0.033  -0.002   0.010   0.002   0.001  -0.013
  0.000   0.001   1.996  -0.000  -0.000  -0.031   0.001   0.001   0.006   0.002  -0.002  -0.005  -0.005  -0.004  -0.001   0.002
 -0.000   0.001  -0.000   1.996  -0.000   0.001  -0.031   0.002  -0.005   0.003  -0.002   0.004   0.000   0.003  -0.001   0.002
  0.000   0.002  -0.000  -0.000   1.996   0.001   0.002  -0.031   0.002  -0.005  -0.001   0.003   0.000  -0.001   0.003   0.000
  0.000  -0.002  -0.031   0.001   0.001   0.066  -0.001  -0.001  -0.001  -0.001   0.003   0.011   0.006   0.001   0.001  -0.002
  0.000   0.001   0.001  -0.031   0.002  -0.001   0.069  -0.003   0.012  -0.010   0.006   0.001  -0.000  -0.006   0.004  -0.002
  0.000  -0.003   0.001   0.002  -0.031  -0.001  -0.003   0.067  -0.008   0.010   0.002  -0.001  -0.002   0.003  -0.006   0.000
  0.004   0.006   0.006  -0.005   0.002  -0.001   0.012  -0.008   3.233  -0.098  -0.025  -0.002   0.003  -1.338   0.070   0.011
  0.004   0.006   0.002   0.003  -0.005  -0.001  -0.010   0.010  -0.098   3.211   0.013  -0.001  -0.019   0.070  -1.333  -0.006
  0.002   0.033  -0.002  -0.002  -0.001   0.003   0.006   0.002  -0.025   0.013   2.643   0.030  -0.009   0.011  -0.006  -1.187
  0.010  -0.002  -0.005   0.004   0.003   0.011   0.001  -0.001  -0.002  -0.001   0.030   3.226   0.056   0.009   0.009  -0.013
  0.001   0.010  -0.005   0.000   0.000   0.006  -0.000  -0.002   0.003  -0.019  -0.009   0.056   2.560  -0.001   0.009   0.006
 -0.004   0.002  -0.004   0.003  -0.001   0.001  -0.006   0.003  -1.338   0.070   0.011   0.009  -0.001   0.565  -0.041  -0.005
 -0.003   0.001  -0.001  -0.001   0.003   0.001   0.004  -0.006   0.070  -1.333  -0.006   0.009   0.009  -0.041   0.564   0.003
 -0.002  -0.013   0.002   0.002   0.000  -0.002  -0.002   0.000   0.011  -0.006  -1.187  -0.013   0.006  -0.005   0.003   0.541
 -0.007   0.018   0.003  -0.003  -0.002  -0.006   0.000   0.001   0.009   0.009  -0.012  -1.339  -0.023  -0.007  -0.007   0.005
 -0.001  -0.006   0.003  -0.000   0.000  -0.003   0.000  -0.000  -0.001   0.009   0.006  -0.023  -1.153   0.001  -0.004  -0.004


------------------------ aborting loop because EDIFF is reached ----------------------------------------


    CHARGE:  cpu time      0.1851: real time      0.1857
    FORLOC:  cpu time      0.0014: real time      0.0014
    FORNL :  cpu time      3.8912: real time      3.9059
    STRESS:  cpu time      4.6136: real time      4.6354
    FORCOR:  cpu time      0.0099: real time      0.0099
    FORHAR:  cpu time      0.0030: real time      0.0031
    MIXING:  cpu time      0.0008: real time      0.0008
    OFIELD:  cpu time      0.0000: real time      0.0000

  FORCE on cell =-STRESS in cart. coord.  units (eV):
  Direction    XX          YY          ZZ          XY          YZ          ZX
  --------------------------------------------------------------------------------------
  Alpha Z  3602.23222  3602.23222  3602.23222
  Ewald  -14754.35079-14735.44427-14725.94738    32.12453     6.94553    17.07829
  Hartree  2546.45432  2563.27682  2577.02766    31.60442     5.72201    14.42979
  E(xc)   -1941.35575 -1941.36230 -1941.33557    -0.06303     0.00651    -0.01007
  Local    3345.43797  3309.73698  3284.98322   -61.68989   -12.30243   -29.87967
  n-local  -621.30288  -625.50282  -621.78960    -1.03704    -1.20034    -0.82047
  augment  1162.88411  1163.08611  1162.91045    -0.26361    -0.03530    -0.19679
  Kinetic  6605.65370  6608.86724  6606.45199     0.10368     0.83095    -0.61549
  Fock        0.00000     0.00000     0.00000     0.00000     0.00000     0.00000
  -------------------------------------------------------------------------------------
  Total     -54.34709   -55.11001   -55.46700     0.77907    -0.03307    -0.01441
  in kB    -152.81966  -154.96493  -155.96874     2.19069    -0.09299    -0.04052
  external pressure =     -154.58 kB  Pullay stress =        0.00 kB


 VOLUME and BASIS-vectors are now :
 -----------------------------------------------------------------------------
  energy-cutoff  :      250.00
  volume of cell :      569.78
      direct lattice vectors                 reciprocal lattice vectors
    13.160000000  0.000000000  0.000000000     0.075987842  0.000000000  0.000000000
     0.000000000  6.580000000  0.000000000     0.000000000  0.151975684  0.000000000
     0.000000000  0.000000000  6.580000000     0.000000000  0.000000000  0.151975684

  length of vectors
    13.160000000  6.580000000  6.580000000     0.075987842  0.151975684  0.151975684


 FORCES acting on ions
    electron-ion (+dipol)            ewald-force                    non-local-force                 convergence-correction
 -----------------------------------------------------------------------------------------------
   0.298E+02 0.583E+01 -.789E+01   -.301E+02 -.563E+01 0.766E+01   0.294E+00 0.730E-01 0.233E-01   -.656E-04 0.585E-04 0.137E-03
   0.462E+02 -.404E+02 0.203E+02   -.456E+02 0.403E+02 -.199E+02   -.193E+00 -.615E-02 -.119E+00   -.152E-03 0.704E-04 0.498E-04
   -.669E+01 0.575E+01 0.789E+01   0.669E+01 -.563E+01 -.766E+01   -.285E+00 0.116E+00 -.367E-01   -.421E-04 0.403E-04 -.139E-03
   -.746E+02 0.288E+02 -.258E+02   0.741E+02 -.286E+02 0.255E+02   -.207E+00 -.840E-01 0.113E+00   -.553E-04 -.204E-04 0.389E-04
   0.267E+02 0.403E+02 -.203E+02   -.260E+02 -.403E+02 0.199E+02   -.186E+00 0.156E-01 0.810E-01   -.124E-03 -.629E-04 -.511E-04
   0.331E+02 -.839E+01 -.671E+02   -.328E+02 0.817E+01 0.663E+02   -.639E-01 0.285E-01 0.879E-01   0.396E-04 -.478E-04 -.263E-05
   0.239E+02 0.840E+01 -.671E+02   -.236E+02 -.817E+01 0.663E+02   -.178E+00 -.292E-01 0.108E+00   0.303E-04 0.507E-04 -.872E-05
   0.249E+02 0.313E+02 -.105E+02   -.250E+02 -.311E+02 0.107E+02   0.141E+00 0.132E-01 -.620E-01   0.769E-04 0.756E-05 -.129E-03
   0.381E+02 0.378E+02 0.201E+01   -.383E+02 -.377E+02 -.203E+01   0.322E+00 0.254E-01 0.609E-01   -.154E-03 -.525E-04 0.252E-04
   0.331E+01 -.186E+02 0.421E+02   -.271E+01 0.187E+02 -.417E+02   -.312E+00 -.604E-01 0.175E-01   0.196E-03 -.210E-04 0.118E-04
   0.557E+02 -.601E+01 -.832E+01   -.560E+02 0.606E+01 0.825E+01   0.327E+00 -.149E+00 -.759E-01   -.805E-04 -.554E-04 0.141E-03
   0.214E+02 -.186E+02 -.421E+02   -.213E+02 0.187E+02 0.417E+02   0.402E+00 -.646E-01 0.131E-01   0.163E-03 -.180E-04 -.102E-04
   0.516E+02 -.407E+02 -.213E+01   -.518E+02 0.406E+02 0.219E+01   -.786E-02 -.309E-01 -.335E-01   -.116E-03 0.554E-04 -.299E-04
   -.798E+02 0.310E+02 0.277E+02   0.793E+02 -.308E+02 -.275E+02   -.878E-01 -.361E-01 -.331E-01   -.565E-04 -.311E-04 -.472E-04
   0.447E+01 0.893E+01 0.718E+02   -.373E+01 -.879E+01 -.714E+02   -.405E+00 -.576E-02 0.877E-01   -.721E-06 0.496E-04 0.919E-05
   0.643E+02 -.407E+02 0.211E+01   -.648E+02 0.406E+02 -.219E+01   0.421E+00 0.659E-02 0.618E-01   -.204E-03 0.553E-04 0.310E-04
   -.111E+03 0.831E+02 0.415E+02   0.111E+03 -.829E+02 -.412E+02   -.416E+00 0.171E+00 0.120E-01   0.115E-03 -.220E-04 0.440E-04
   0.104E+02 -.266E+02 -.886E+01   -.105E+02 0.263E+02 0.906E+01   0.355E+00 0.141E-01 -.666E-02   0.698E-04 -.134E-05 -.116E-03
   0.415E+02 0.341E+02 0.173E+02   -.410E+02 -.341E+02 -.168E+02   0.872E-01 0.125E-01 0.146E-01   -.114E-03 -.589E-04 0.365E-04
   0.169E+02 -.495E+01 0.668E+01   -.172E+02 0.476E+01 -.648E+01   -.618E-01 -.910E-01 0.742E-02   -.645E-04 -.239E-04 -.116E-03
   -.552E+02 -.244E+02 0.218E+02   0.544E+02 0.242E+02 -.216E+02   0.287E-01 -.275E-02 0.251E-01   -.379E-04 0.217E-04 -.384E-04
   -.156E+02 0.147E+02 0.333E+02   0.164E+02 -.147E+02 -.328E+02   -.287E+00 0.241E-01 -.369E-01   0.190E-03 0.107E-04 0.336E-05
   -.384E+02 -.244E+02 -.218E+02   0.374E+02 0.242E+02 0.216E+02   0.109E+00 -.216E-01 -.470E-02   -.331E-04 0.239E-04 0.386E-04
   -.771E+02 0.833E+02 -.416E+02   0.768E+02 -.829E+02 0.412E+02   -.557E-01 0.949E-01 -.731E-01   0.112E-03 -.164E-04 -.477E-04
   -.874E+02 -.833E+02 0.415E+02   0.874E+02 0.829E+02 -.412E+02   -.485E+00 -.891E-01 0.791E-01   0.119E-03 0.199E-04 0.484E-04
   0.359E+02 -.896E+01 0.719E+02   -.359E+02 0.879E+01 -.714E+02   0.343E+00 -.442E-01 0.137E+00   0.176E-04 -.494E-04 0.425E-05
   0.562E+01 -.337E+02 0.114E+02   -.583E+01 0.335E+02 -.115E+02   0.390E+00 -.718E-02 -.907E-01   0.988E-04 -.956E-05 0.147E-03
   0.229E+02 0.407E+02 -.217E+01   -.226E+02 -.406E+02 0.219E+01   -.351E+00 -.169E-01 0.407E-02   -.135E-03 -.572E-04 -.233E-04
   0.289E+01 0.336E+02 0.114E+02   -.277E+01 -.335E+02 -.115E+02   -.130E-01 0.122E-01 -.572E-01   0.914E-04 0.823E-05 0.146E-03
   0.422E+02 -.434E+02 -.217E+02   -.416E+02 0.434E+02 0.214E+02   -.298E+00 0.264E-01 -.108E+00   -.125E-03 0.734E-04 -.617E-04
   -.746E+01 0.187E+02 -.420E+02   0.782E+01 -.187E+02 0.417E+02   0.244E+00 -.226E-01 -.869E-01   0.153E-03 0.203E-04 -.925E-05
   -.483E+02 -.832E+02 -.415E+02   0.477E+02 0.829E+02 0.412E+02   0.259E+00 -.844E-01 -.724E-01   0.789E-04 0.240E-04 -.431E-04
 -----------------------------------------------------------------------------------------------
   0.169E+00 0.212E+00 -.368E-01   0.213E-12 -.128E-12 -.711E-13   -.169E+00 -.212E+00 0.368E-01   -.808E-05 0.420E-04 0.373E-04
 
 
 POSITION                                       TOTAL-FORCE (eV/Angst)
 -----------------------------------------------------------------------------------
      4.93500      1.64500      1.64500        -0.070980      0.271349     -0.210063
      1.64500      1.64500      1.64500         0.399759     -0.080746      0.330212
      4.93500      1.64500      4.93500        -0.279367      0.240229      0.191023
      0.00000      0.00000      0.00000        -0.644120      0.184960     -0.183828
      1.64500      4.93500      4.93500         0.539876      0.051835     -0.325816
      6.58000      0.00000      3.29000         0.243016     -0.197214     -0.661799
      6.58000      3.29000      3.29000         0.198605      0.206227     -0.693526
      8.22500      4.93500      4.93500         0.047163      0.221117      0.134099
      3.29000      0.00000      0.00000         0.155119      0.114806      0.041930
      9.87000      0.00000      0.00000         0.288136     -0.004249      0.344163
      4.93500      4.93500      1.64500        -0.026432     -0.096084     -0.148333
      9.87000      0.00000      3.29000         0.524645     -0.004630     -0.326187
      3.29000      3.29000      3.29000        -0.193314     -0.033319      0.024150
      0.00000      0.00000      3.29000        -0.614694      0.177820      0.195181
      6.58000      3.29000      0.00000         0.342427      0.131378      0.502520
      3.29000      3.29000      0.00000        -0.036572     -0.037814     -0.018562
     11.51500      4.93500      1.64500        -0.508118      0.312786      0.306578
      8.22500      1.64500      4.93500         0.288243     -0.247862      0.193621
      1.64500      4.93500      1.64500         0.607147      0.036365      0.475349
      4.93500      4.93500      4.93500        -0.356999     -0.280447      0.208374
      0.00000      3.29000      3.29000        -0.677571     -0.232844      0.240192
      9.87000      3.29000      0.00000         0.469152      0.091027      0.497416
      0.00000      3.29000      0.00000        -0.823449     -0.215178     -0.204279
     11.51500      4.93500      4.93500        -0.370031      0.412324     -0.432160
     11.51500      1.64500      1.64500        -0.568573     -0.441776      0.420890
      6.58000      0.00000      0.00000         0.290315     -0.208844      0.645187
      8.22500      1.64500      1.64500         0.185963     -0.172702     -0.194118
      3.29000      0.00000      3.29000        -0.057587      0.020184      0.019136
      8.22500      4.93500      1.64500         0.108826      0.165071     -0.188546
      1.64500      1.64500      4.93500         0.294014      0.005512     -0.385360
      9.87000      3.29000      3.29000         0.608537      0.005707     -0.393412
     11.51500      1.64500      4.93500        -0.363136     -0.394987     -0.404033
 -----------------------------------------------------------------------------------
    total drift:                                0.000037     -0.000008     -0.000016


--------------------------------------------------------------------------------------------------------



  FREE ENERGIE OF THE ION-ELECTRON SYSTEM (eV)
  ---------------------------------------------------
  free  energy   TOTEN  =      -368.06673839 eV

  energy  without entropy=     -368.06199501  energy(sigma->0) =     -368.06436670
 


--------------------------------------------------------------------------------------------------------


    POTLOK:  cpu time      0.0096: real time      0.0097


--------------------------------------------------------------------------------------------------------


     LOOP+:  cpu time    362.9060: real time    364.4876
    4ORBIT:  cpu time      0.0000: real time      0.0000

 total amount of memory used by VASP MPI-rank0    61379. kBytes
=======================================================================

   base      :      30000. kBytes
   nonl-proj :       9945. kBytes
   fftplans  :        778. kBytes
   grid      :       1458. kBytes
   one-center:         46. kBytes
   wavefun   :      19152. kBytes
 
  
  
 General timing and accounting informations for this job:
 ========================================================
  
                  Total CPU time used (sec):      368.738
                            User time (sec):      363.682
                          System time (sec):        5.056
                         Elapsed time (sec):      372.178
  
                   Maximum memory used (kb):      107012.
                   Average memory used (kb):          N/A
  
                          Minor page faults:        10663
                          Major page faults:            0
                 Voluntary context switches:          264
