 vasp.6.3.1 04May22 (build Jul 26 2022 04:02:40) complex                        
  
 executed on             LinuxIFC date 2023.11.30  01:45:28
 running on   48 total cores
 distrk:  each k-point on   48 cores,    1 groups
 distr:  one band on NCORE=  12 cores,    4 groups


--------------------------------------------------------------------------------------------------------


 INCAR:
   ISTART = 0
   NWRITE = 2
   PREC = Accurate
   ENCUT = 250
   GGA = PE
   NSW = 0
   ISIF = 2
   ISYM = 2
   NBLOCK = 1
   KBLOCK = 1
   IBRION = -1
   NELM = 80
   EDIFF = 1E-08
   EDIFFG = -0.01
   ALGO = Normal
   LDIAG = .TRUE.
   LREAL = .FALSE.
   ISMEAR = 0
   SIGMA = 0.02
   ICHARG = 2
   LPLANE = .TRUE.
   NPAR = 4
   LSCALU = .FALSE.
   NSIM = 4
   LWAVE = .FALSE.
   LCHARG = .FALSE.
   ICORELEVEL = 1

 POTCAR:    PAW_PBE Nb_sv 25May2007               
 POTCAR:    PAW_PBE Mo_sv 02Feb2006               
 POTCAR:    PAW_PBE Ta_pv 07Sep2000               
 POTCAR:    PAW_PBE W_sv 04Sep2015                
 POTCAR:    PAW_PBE Nb_sv 25May2007               
   SHA256 =  0e8fc07c9fcd1164cf2ade22d0399fd28f85e91cd773dfa6cf24839a48c95e24 Nb_sv/POTCAR          
   COPYR  = (c) Copyright 25May2007 Georg Kresse                                                    
   COPYR  = This file is part of the software VASP. Any use, copying, and all other rights are regul
   COPYR  = If you do not have a valid VASP license, you may not use, copy or distribute this file. 
   VRHFIN =Nb: 4p5s4d                                                                               
   LEXCH  = PE                                                                                      
   EATOM  =  1555.1913 eV,  114.3033 Ry                                                             
                                                                                                    
   TITEL  = PAW_PBE Nb_sv 25May2007                                                                 
   LULTRA =        F    use ultrasoft PP ?                                                          
   IUNSCR =        1    unscreen: 0-lin 1-nonlin 2-no                                               
   RPACOR =    1.800    partial core radius                                                         
   POMASS =   92.910; ZVAL   =   13.000    mass and valenz                                          
   RCORE  =    2.400    outmost cutoff radius                                                       
   RWIGS  =    2.400; RWIGS  =    1.270    wigner-seitz radius (au A)                               
   ENMAX  =  293.235; ENMIN  =  219.927 eV                                                          
   ICORE  =        3    local potential                                                             
   LCOR   =        T    correct aug charges                                                         
   LPAW   =        T    paw PP                                                                      
   EAUG   =  455.659                                                                                
   DEXC   =    0.000                                                                                
   RMAX   =    2.456    core radius for proj-oper                                                   
   RAUG   =    1.300    factor for augmentation sphere                                              
   RDEP   =    2.451    radius for radial grids                                                     
   RDEPT  =    1.956    core radius for aug-charge                                                  
                                                                                                    
   Atomic configuration                                                                             
   11 entries                                                                                       
     n  l   j            E        occ.                                                              
     1  0  0.50    -18805.2457   2.0000                                                             
     2  0  0.50     -2630.2869   2.0000                                                             
     2  1  1.50     -2348.4046   6.0000                                                             
     3  0  0.50      -438.8757   2.0000                                                             
     3  1  1.50      -346.7588   6.0000                                                             
     3  2  2.50      -196.2560  10.0000                                                             
     4  0  0.50       -58.3859   2.0000                                                             
     5  0  0.50        -3.9816   1.0000                                                             
     4  1  1.50       -34.5141   6.0000                                                             
     4  2  2.50        -3.0408   4.0000                                                             
     4  3  2.50        -1.3606   0.0000                                                             
   Description                                                                                      
     l       E           TYP  RCUT    TYP  RCUT                                                     
     0    -58.3859094     23  2.200                                                                 
     0     -3.9816262     23  2.200                                                                 
     1    -34.5140738     23  2.200                                                                 
     1     13.6058260     23  2.200                                                                 
     2     -3.0408010     23  2.200                                                                 
     2     -0.1283038     23  2.200                                                                 
     3     -1.3605826     23  2.400                                                                 
  local pseudopotential read in
  partial core-charges read in
  partial kinetic energy density read in
  atomic valenz-charges read in
  non local Contribution for L=           0  read in
    real space projection operators read in
  non local Contribution for L=           0  read in
    real space projection operators read in
  non local Contribution for L=           1  read in
    real space projection operators read in
  non local Contribution for L=           1  read in
    real space projection operators read in
  non local Contribution for L=           2  read in
    real space projection operators read in
  non local Contribution for L=           2  read in
    real space projection operators read in
    PAW grid and wavefunctions read in
 
   number of l-projection  operators is LMAX  =           6
   number of lm-projection operators is LMMAX =          18
 
 POTCAR:    PAW_PBE Mo_sv 02Feb2006               
   SHA256 =  2731df97e41766cc617548c5a8267718fdef1f509ac6bafa01e745abea2bdfaa Mo_sv/POTCAR          
   COPYR  = (c) Copyright 02Feb2006 Georg Kresse                                                    
   COPYR  = This file is part of the software VASP. Any use, copying, and all other rights are regul
   COPYR  = If you do not have a valid VASP license, you may not use, copy or distribute this file. 
   VRHFIN =Mo: 4p5s4d                                                                               
   LEXCH  = PE                                                                                      
   EATOM  =  1862.2866 eV,  136.8742 Ry                                                             
                                                                                                    
   TITEL  = PAW_PBE Mo_sv 02Feb2006                                                                 
   LULTRA =        F    use ultrasoft PP ?                                                          
   IUNSCR =        1    unscreen: 0-lin 1-nonlin 2-no                                               
   RPACOR =    2.200    partial core radius                                                         
   POMASS =   95.940; ZVAL   =   14.000    mass and valenz                                          
   RCORE  =    2.500    outmost cutoff radius                                                       
   RWIGS  =    2.750; RWIGS  =    1.455    wigner-seitz radius (au A)                               
   ENMAX  =  242.676; ENMIN  =  182.007 eV                                                          
   ICORE  =        3    local potential                                                             
   LCOR   =        T    correct aug charges                                                         
   LPAW   =        T    paw PP                                                                      
   EAUG   =  446.014                                                                                
   DEXC   =    0.000                                                                                
   RMAX   =    2.563    core radius for proj-oper                                                   
   RAUG   =    1.300    factor for augmentation sphere                                              
   RDEP   =    2.641    radius for radial grids                                                     
   RDEPT  =    2.031    core radius for aug-charge                                                  
                                                                                                    
   Atomic configuration                                                                             
   11 entries                                                                                       
     n  l   j            E        occ.                                                              
     1  0  0.50    -19819.0341   2.0000                                                             
     2  0  0.50     -2799.0127   2.0000                                                             
     2  1  1.50     -2502.0276   6.0000                                                             
     3  0  0.50      -476.4449   2.0000                                                             
     3  1  1.50      -379.1496   6.0000                                                             
     3  2  2.50      -220.9367  10.0000                                                             
     4  0  0.50       -64.3378   2.0000                                                             
     5  0  0.50        -4.0862   1.0000                                                             
     4  1  1.50       -38.4773   6.0000                                                             
     4  2  2.50        -3.7535   5.0000                                                             
     4  3  2.50        -1.3606   0.0000                                                             
   Description                                                                                      
     l       E           TYP  RCUT    TYP  RCUT                                                     
     0    -64.3377829     23  2.100                                                                 
     0     -4.0861640     23  2.400                                                                 
     1    -38.4772993     23  2.100                                                                 
     1     13.6058260     23  2.100                                                                 
     2     -3.7534941     23  2.400                                                                 
     2     -5.1140767     23  2.400                                                                 
     3     -4.0817478     23  2.500                                                                 
  local pseudopotential read in
  partial core-charges read in
  partial kinetic energy density read in
  atomic valenz-charges read in
  non local Contribution for L=           0  read in
    real space projection operators read in
  non local Contribution for L=           0  read in
    real space projection operators read in
  non local Contribution for L=           1  read in
    real space projection operators read in
  non local Contribution for L=           1  read in
    real space projection operators read in
  non local Contribution for L=           2  read in
    real space projection operators read in
  non local Contribution for L=           2  read in
    real space projection operators read in
    PAW grid and wavefunctions read in
 
   number of l-projection  operators is LMAX  =           6
   number of lm-projection operators is LMMAX =          18
 
 POTCAR:    PAW_PBE Ta_pv 07Sep2000               
   SHA256 =  00d0a14a36c127416459414afb8617d9754996fffa60a2465888e660b20a452f Ta_pv/POTCAR          
   COPYR  = (c) Copyright 07Sep2000 Georg Kresse                                                    
   COPYR  = This file is part of the software VASP. Any use, copying, and all other rights are regul
   COPYR  = If you do not have a valid VASP license, you may not use, copy or distribute this file. 
   VRHFIN =Ta:  5p6s5d                                                                              
   LEXCH  = PE                                                                                      
   EATOM  =  1047.1984 eV,   76.9669 Ry                                                             
                                                                                                    
   TITEL  = PAW_PBE Ta_pv 07Sep2000                                                                 
   LULTRA =        F    use ultrasoft PP ?                                                          
   IUNSCR =        1    unscreen: 0-lin 1-nonlin 2-no                                               
   RPACOR =    2.330    partial core radius                                                         
   POMASS =  180.948; ZVAL   =   11.000    mass and valenz                                          
   RCORE  =    2.500    outmost cutoff radius                                                       
   RWIGS  =    2.840; RWIGS  =    1.503    wigner-seitz radius (au A)                               
   ENMAX  =  223.667; ENMIN  =  167.750 eV                                                          
   RCLOC  =    2.205    cutoff for local pot                                                        
   LCOR   =        T    correct aug charges                                                         
   LPAW   =        T    paw PP                                                                      
   EAUG   =  377.421                                                                                
   DEXC   =    0.000                                                                                
   RMAX   =    2.551    core radius for proj-oper                                                   
   RAUG   =    1.300    factor for augmentation sphere                                              
   RDEP   =    2.526    radius for radial grids                                                     
   RDEPT  =    2.132    core radius for aug-charge                                                  
                                                                                                    
   Atomic configuration                                                                             
   15 entries                                                                                       
     n  l   j            E        occ.                                                              
     1  0  0.50    -67341.2801   2.0000                                                             
     2  0  0.50    -11566.9369   2.0000                                                             
     2  1  1.50    -10134.1175   6.0000                                                             
     3  0  0.50     -2648.5614   2.0000                                                             
     3  1  1.50     -2222.6006   6.0000                                                             
     3  2  2.50     -1726.3114  10.0000                                                             
     4  0  0.50      -538.6957   2.0000                                                             
     4  1  1.50      -399.0125   6.0000                                                             
     4  2  2.50      -220.3955  10.0000                                                             
     4  3  3.50       -23.0371  14.0000                                                             
     5  0  0.50       -71.2900   2.0000                                                             
     5  1  1.50       -37.8224   6.0000                                                             
     5  2  2.50        -2.6455   4.0000                                                             
     6  0  0.50        -4.9623   1.0000                                                             
     5  3  2.50        -1.3606   0.0000                                                             
   Description                                                                                      
     l       E           TYP  RCUT    TYP  RCUT                                                     
     1    -37.8224449     23  2.500                                                                 
     1      1.3605826     23  2.500                                                                 
     2     -2.6454718     23  2.500                                                                 
     2     -0.6258570     23  2.500                                                                 
     0     -4.9622674     23  2.500                                                                 
     0      4.7531427     23  2.500                                                                 
  local pseudopotential read in
  partial core-charges read in
  partial kinetic energy density read in
  atomic valenz-charges read in
  non local Contribution for L=           1  read in
    real space projection operators read in
  non local Contribution for L=           1  read in
    real space projection operators read in
  non local Contribution for L=           2  read in
    real space projection operators read in
  non local Contribution for L=           2  read in
    real space projection operators read in
  non local Contribution for L=           0  read in
    real space projection operators read in
  non local Contribution for L=           0  read in
    real space projection operators read in
    PAW grid and wavefunctions read in
 
   number of l-projection  operators is LMAX  =           6
   number of lm-projection operators is LMMAX =          18
 
 POTCAR:    PAW_PBE W_sv 04Sep2015                
   SHA256 =  931c2d770f65867ef30f3db3421922900fc0890ebac5c3e12f63b6a2064023d7 W_sv/POTCAR           
   COPYR  = (c) Copyright 04Sep2015 Georg Kresse                                                    
   COPYR  = This file is part of the software VASP. Any use, copying, and all other rights are regul
   COPYR  = If you do not have a valid VASP license, you may not use, copy or distribute this file. 
   VRHFIN =W : 5p6s5d                                                                               
   LEXCH  = PE                                                                                      
   EATOM  =  1865.5791 eV,  137.1162 Ry                                                             
                                                                                                    
   TITEL  = PAW_PBE W_sv 04Sep2015                                                                  
   LULTRA =        F    use ultrasoft PP ?                                                          
   IUNSCR =        1    unscreen: 0-lin 1-nonlin 2-no                                               
   RPACOR =    2.330    partial core radius                                                         
   POMASS =  183.850; ZVAL   =   14.000    mass and valenz                                          
   RCORE  =    2.500    outmost cutoff radius                                                       
   RWIGS  =    2.750; RWIGS  =    1.455    wigner-seitz radius (au A)                               
   ENMAX  =  223.057; ENMIN  =  167.293 eV                                                          
   ICORE  =        3    local potential                                                             
   LCOR   =        T    correct aug charges                                                         
   LPAW   =        T    paw PP                                                                      
   EAUG   =  373.438                                                                                
   DEXC   =    0.000                                                                                
   RMAX   =    2.565    core radius for proj-oper                                                   
   RAUG   =    1.300    factor for augmentation sphere                                              
   RDEP   =    2.539    radius for radial grids                                                     
   RDEPT  =    2.126    core radius for aug-charge                                                  
                                                                                                    
   Atomic configuration                                                                             
   15 entries                                                                                       
     n  l   j            E        occ.                                                              
     1  0  0.50    -69465.5834   2.0000                                                             
     2  0  0.50    -11986.2640   2.0000                                                             
     2  1  1.50    -10479.8613   6.0000                                                             
     3  0  0.50     -2759.0756   2.0000                                                             
     3  1  1.50     -2313.1855   6.0000                                                             
     3  2  2.50     -1801.1183  10.0000                                                             
     4  0  0.50      -567.6789   2.0000                                                             
     4  1  1.50      -421.4692   6.0000                                                             
     4  2  2.50      -236.3471  10.0000                                                             
     4  3  3.50       -31.2665  14.0000                                                             
     5  0  0.50       -77.1084   2.0000                                                             
     6  0  0.50        -5.1438   1.0000                                                             
     5  1  1.50       -41.3856   6.0000                                                             
     5  2  2.50        -3.3185   5.0000                                                             
     5  3  2.50        -1.3606   0.0000                                                             
   Description                                                                                      
     l       E           TYP  RCUT    TYP  RCUT                                                     
     0    -77.1084470     23  2.100                                                                 
     0     -5.1437956     23  2.300                                                                 
     1    -41.3855615     23  2.500                                                                 
     1     -2.7211652     23  2.500                                                                 
     2     -3.3185025     23  2.500                                                                 
     2     -1.5965151     23  2.500                                                                 
     3     -1.3605826     23  2.500                                                                 
  local pseudopotential read in
  partial core-charges read in
  partial kinetic energy density read in
  kinetic energy density of atom read in
  atomic valenz-charges read in
  non local Contribution for L=           0  read in
    real space projection operators read in
  non local Contribution for L=           0  read in
    real space projection operators read in
  non local Contribution for L=           1  read in
    real space projection operators read in
  non local Contribution for L=           1  read in
    real space projection operators read in
  non local Contribution for L=           2  read in
    real space projection operators read in
  non local Contribution for L=           2  read in
    real space projection operators read in
    PAW grid and wavefunctions read in
 
   number of l-projection  operators is LMAX  =           6
   number of lm-projection operators is LMMAX =          18
 
  PAW_PBE Nb_sv 25May2007               :
 energy of atom  1       EATOM=-1555.1913
 kinetic energy error for atom=    0.2155 (will be added to EATOM!!)
  PAW_PBE Mo_sv 02Feb2006               :
 energy of atom  2       EATOM=-1862.2866
 kinetic energy error for atom=    0.1102 (will be added to EATOM!!)
  PAW_PBE Ta_pv 07Sep2000               :
 energy of atom  3       EATOM=-1047.1984
 kinetic energy error for atom=    0.0394 (will be added to EATOM!!)
  PAW_PBE W_sv 04Sep2015                :
 energy of atom  4       EATOM=-1865.5791
 kinetic energy error for atom=    0.0589 (will be added to EATOM!!)
 
 
 POSCAR: Nb-Mo-Ta-W alloy
  positions in direct lattice
  No initial velocities read in
 exchange correlation table for  LEXCH =        8
   RHO(1)=    0.500       N(1)  =     2000
   RHO(2)=  100.500       N(2)  =     4000
 


--------------------------------------------------------------------------------------------------------


 ion  position               nearest neighbor table
   1  0.250  0.250  0.750-   3 2.85   4 2.85   7 2.85   8 2.85  10 2.85  13 2.85  14 2.85  16 2.85

   2  0.250  0.750  0.250-   3 2.85   4 2.85   7 2.85   8 2.85  10 2.85  13 2.85  14 2.85  16 2.85
                            11 3.29  11 3.29
   3  0.000  0.500  0.000-   1 2.85   2 2.85   5 2.85   6 2.85   9 2.85  11 2.85  12 2.85  15 2.85
                            10 3.29  10 3.29
   4  0.000  0.500  0.500-   1 2.85   2 2.85   5 2.85   6 2.85   9 2.85  11 2.85  12 2.85  15 2.85

   5  0.250  0.750  0.750-   3 2.85   4 2.85   7 2.85   8 2.85  10 2.85  13 2.85  14 2.85  16 2.85
                             9 3.29   9 3.29
   6  0.750  0.250  0.250-   3 2.85   4 2.85   7 2.85   8 2.85  10 2.85  13 2.85  14 2.85  16 2.85
                            11 3.29  11 3.29
   7  0.500  0.500  0.000-   1 2.85   2 2.85   5 2.85   6 2.85   9 2.85  11 2.85  12 2.85  15 2.85
                            14 3.29  16 3.29  16 3.29  14 3.29
   8  0.000  0.000  0.500-   1 2.85   2 2.85   5 2.85   6 2.85   9 2.85  11 2.85  12 2.85  15 2.85
                            13 3.29  10 3.29  10 3.29  13 3.29
   9  0.750  0.750  0.750-   3 2.85   4 2.85   7 2.85   8 2.85  10 2.85  13 2.85  14 2.85  16 2.85
                             5 3.29  11 3.29  12 3.29  11 3.29  12 3.29   5 3.29
  10  0.000  0.000  0.000-   1 2.85   2 2.85   5 2.85   6 2.85   9 2.85  11 2.85  12 2.85  15 2.85
                             3 3.29  14 3.29   8 3.29   8 3.29   3 3.29  14 3.29
  11  0.750  0.750  0.250-   3 2.85   4 2.85   7 2.85   8 2.85  10 2.85  13 2.85  14 2.85  16 2.85
                             6 3.29   9 3.29   2 3.29   9 3.29   6 3.29   2 3.29
  12  0.750  0.250  0.750-   3 2.85   4 2.85   7 2.85   8 2.85  10 2.85  13 2.85  14 2.85  16 2.85
                             9 3.29   9 3.29
  13  0.500  0.000  0.500-   1 2.85   2 2.85   5 2.85   6 2.85   9 2.85  11 2.85  12 2.85  15 2.85
                            14 3.29   8 3.29  16 3.29  14 3.29  16 3.29   8 3.29
  14  0.500  0.000  0.000-   1 2.85   2 2.85   5 2.85   6 2.85   9 2.85  11 2.85  12 2.85  15 2.85
                            10 3.29  13 3.29   7 3.29  13 3.29   7 3.29  10 3.29
  15  0.250  0.250  0.250-   3 2.85   4 2.85   7 2.85   8 2.85  10 2.85  13 2.85  14 2.85  16 2.85

  16  0.500  0.500  0.500-   1 2.85   2 2.85   5 2.85   6 2.85   9 2.85  11 2.85  12 2.85  15 2.85
                            13 3.29   7 3.29   7 3.29  13 3.29
 
  LATTYP: Found a simple cubic cell.
 ALAT       =     6.5800000000
  
  Lattice vectors:
  
 A1 = (   6.5800000000,   0.0000000000,   0.0000000000)
 A2 = (   0.0000000000,   6.5800000000,   0.0000000000)
 A3 = (   0.0000000000,   0.0000000000,   6.5800000000)


Analysis of symmetry for initial positions (statically):
=====================================================================
 Subroutine PRICEL returns:
 Original cell was already a primitive cell.
 

 Routine SETGRP: Setting up the symmetry group for a 
 simple cubic supercell.


 Subroutine GETGRP returns: Found  1 space group operations
 (whereof  1 operations were pure point group operations)
 out of a pool of 48 trial point group operations.


The static configuration has the point symmetry C_1 .


Analysis of symmetry for dynamics (positions and initial velocities):
=====================================================================
 Subroutine PRICEL returns:
 Original cell was already a primitive cell.
 

 Routine SETGRP: Setting up the symmetry group for a 
 simple cubic supercell.


 Subroutine GETGRP returns: Found  1 space group operations
 (whereof  1 operations were pure point group operations)
 out of a pool of 48 trial point group operations.


The dynamic configuration has the point symmetry C_1 .


 Subroutine INISYM returns: Found  1 space group operations
 (whereof  1 operations are pure point group operations),
 and found     1 'primitive' translations


----------------------------------------------------------------------------------------

                                     Primitive cell                                     

  volume of cell :     284.8903

  direct lattice vectors                    reciprocal lattice vectors
     6.580000000  0.000000000  0.000000000     0.151975684  0.000000000  0.000000000
     0.000000000  6.580000000  0.000000000     0.000000000  0.151975684  0.000000000
     0.000000000  0.000000000  6.580000000     0.000000000  0.000000000  0.151975684

  length of vectors
     6.580000000  6.580000000  6.580000000     0.151975684  0.151975684  0.151975684

  position of ions in fractional coordinates (direct lattice)
     0.250000000  0.250000000  0.750000000
     0.250000000  0.750000000  0.250000000
     0.000000000  0.500000000  0.000000000
     0.000000000  0.500000000  0.500000000
     0.250000000  0.750000000  0.750000000
     0.750000000  0.250000000  0.250000000
     0.500000000  0.500000000  0.000000000
     0.000000000  0.000000000  0.500000000
     0.750000000  0.750000000  0.750000000
     0.000000000  0.000000000  0.000000000
     0.750000000  0.750000000  0.250000000
     0.750000000  0.250000000  0.750000000
     0.500000000  0.000000000  0.500000000
     0.500000000  0.000000000  0.000000000
     0.250000000  0.250000000  0.250000000
     0.500000000  0.500000000  0.500000000

  ion indices of the primitive-cell ions
   primitive index   ion index
                 1           1
                 2           2
                 3           3
                 4           4
                 5           5
                 6           6
                 7           7
                 8           8
                 9           9
                10          10
                11          11
                12          12
                13          13
                14          14
                15          15
                16          16

----------------------------------------------------------------------------------------

 
 
 KPOINTS: K-Spacing Value to Generate K-Mesh: 0.03

Automatic generation of k-mesh.
 Grid dimensions read from file:
 generate k-points for:    5    5    5

 Generating k-lattice:

  Cartesian coordinates                     Fractional coordinates (reciprocal lattice)
     0.030395137  0.000000000  0.000000000     0.200000000  0.000000000  0.000000000
     0.000000000  0.030395137  0.000000000     0.000000000  0.200000000  0.000000000
     0.000000000  0.000000000  0.030395137     0.000000000  0.000000000  0.200000000

  Length of vectors
     0.030395137  0.030395137  0.030395137

  Shift w.r.t. Gamma in fractional coordinates (k-lattice)
     0.000000000  0.000000000  0.000000000

 
 Subroutine IBZKPT returns following result:
 ===========================================
 
 Found     63 irreducible k-points:
 
 Following reciprocal coordinates:
            Coordinates               Weight
  0.000000  0.000000  0.000000      1.000000
  0.200000  0.000000  0.000000      2.000000
  0.000000  0.200000  0.000000      2.000000
  0.000000  0.000000  0.200000      2.000000
  0.400000  0.000000  0.000000      2.000000
  0.000000  0.400000  0.000000      2.000000
  0.000000  0.000000  0.400000      2.000000
  0.200000  0.200000  0.000000      2.000000
  0.000000  0.200000  0.200000      2.000000
  0.200000  0.000000  0.200000      2.000000
 -0.200000  0.200000  0.000000      2.000000
 -0.200000  0.000000  0.200000      2.000000
  0.000000 -0.200000  0.200000      2.000000
  0.400000  0.200000  0.000000      2.000000
  0.000000  0.400000  0.200000      2.000000
  0.200000  0.000000  0.400000      2.000000
 -0.200000  0.400000  0.000000      2.000000
 -0.400000  0.000000  0.200000      2.000000
  0.000000  0.200000  0.400000      2.000000
  0.000000 -0.400000  0.200000      2.000000
 -0.200000  0.000000  0.400000      2.000000
  0.400000  0.000000  0.200000      2.000000
  0.000000 -0.200000  0.400000      2.000000
  0.400000 -0.200000  0.000000      2.000000
  0.200000  0.400000  0.000000      2.000000
  0.400000  0.400000  0.000000      2.000000
  0.000000  0.400000  0.400000      2.000000
  0.400000  0.000000  0.400000      2.000000
 -0.400000  0.400000  0.000000      2.000000
 -0.400000  0.000000  0.400000      2.000000
  0.000000 -0.400000  0.400000      2.000000
  0.200000  0.200000  0.200000      2.000000
 -0.200000  0.200000  0.200000      2.000000
 -0.200000 -0.200000  0.200000      2.000000
  0.200000 -0.200000  0.200000      2.000000
  0.400000  0.200000  0.200000      2.000000
  0.200000  0.400000  0.200000      2.000000
  0.200000  0.200000  0.400000      2.000000
 -0.200000  0.400000  0.200000      2.000000
 -0.400000  0.200000  0.200000      2.000000
 -0.200000  0.200000  0.400000      2.000000
 -0.400000 -0.200000  0.200000      2.000000
 -0.200000 -0.400000  0.200000      2.000000
 -0.200000 -0.200000  0.400000      2.000000
  0.200000 -0.400000  0.200000      2.000000
  0.400000 -0.200000  0.200000      2.000000
  0.200000 -0.200000  0.400000      2.000000
  0.400000  0.400000  0.200000      2.000000
  0.200000  0.400000  0.400000      2.000000
  0.400000  0.200000  0.400000      2.000000
 -0.400000  0.400000  0.200000      2.000000
 -0.400000  0.200000  0.400000      2.000000
 -0.200000  0.400000  0.400000      2.000000
 -0.400000 -0.400000  0.200000      2.000000
 -0.200000 -0.400000  0.400000      2.000000
 -0.400000 -0.200000  0.400000      2.000000
  0.400000 -0.400000  0.200000      2.000000
  0.400000 -0.200000  0.400000      2.000000
  0.200000 -0.400000  0.400000      2.000000
  0.400000  0.400000  0.400000      2.000000
 -0.400000  0.400000  0.400000      2.000000
 -0.400000 -0.400000  0.400000      2.000000
  0.400000 -0.400000  0.400000      2.000000
 
 Following cartesian coordinates:
            Coordinates               Weight
  0.000000  0.000000  0.000000      1.000000
  0.030395  0.000000  0.000000      2.000000
  0.000000  0.030395  0.000000      2.000000
  0.000000  0.000000  0.030395      2.000000
  0.060790  0.000000  0.000000      2.000000
  0.000000  0.060790  0.000000      2.000000
  0.000000  0.000000  0.060790      2.000000
  0.030395  0.030395  0.000000      2.000000
  0.000000  0.030395  0.030395      2.000000
  0.030395  0.000000  0.030395      2.000000
 -0.030395  0.030395  0.000000      2.000000
 -0.030395  0.000000  0.030395      2.000000
  0.000000 -0.030395  0.030395      2.000000
  0.060790  0.030395  0.000000      2.000000
  0.000000  0.060790  0.030395      2.000000
  0.030395  0.000000  0.060790      2.000000
 -0.030395  0.060790  0.000000      2.000000
 -0.060790  0.000000  0.030395      2.000000
  0.000000  0.030395  0.060790      2.000000
  0.000000 -0.060790  0.030395      2.000000
 -0.030395  0.000000  0.060790      2.000000
  0.060790  0.000000  0.030395      2.000000
  0.000000 -0.030395  0.060790      2.000000
  0.060790 -0.030395  0.000000      2.000000
  0.030395  0.060790  0.000000      2.000000
  0.060790  0.060790  0.000000      2.000000
  0.000000  0.060790  0.060790      2.000000
  0.060790  0.000000  0.060790      2.000000
 -0.060790  0.060790  0.000000      2.000000
 -0.060790  0.000000  0.060790      2.000000
  0.000000 -0.060790  0.060790      2.000000
  0.030395  0.030395  0.030395      2.000000
 -0.030395  0.030395  0.030395      2.000000
 -0.030395 -0.030395  0.030395      2.000000
  0.030395 -0.030395  0.030395      2.000000
  0.060790  0.030395  0.030395      2.000000
  0.030395  0.060790  0.030395      2.000000
  0.030395  0.030395  0.060790      2.000000
 -0.030395  0.060790  0.030395      2.000000
 -0.060790  0.030395  0.030395      2.000000
 -0.030395  0.030395  0.060790      2.000000
 -0.060790 -0.030395  0.030395      2.000000
 -0.030395 -0.060790  0.030395      2.000000
 -0.030395 -0.030395  0.060790      2.000000
  0.030395 -0.060790  0.030395      2.000000
  0.060790 -0.030395  0.030395      2.000000
  0.030395 -0.030395  0.060790      2.000000
  0.060790  0.060790  0.030395      2.000000
  0.030395  0.060790  0.060790      2.000000
  0.060790  0.030395  0.060790      2.000000
 -0.060790  0.060790  0.030395      2.000000
 -0.060790  0.030395  0.060790      2.000000
 -0.030395  0.060790  0.060790      2.000000
 -0.060790 -0.060790  0.030395      2.000000
 -0.030395 -0.060790  0.060790      2.000000
 -0.060790 -0.030395  0.060790      2.000000
  0.060790 -0.060790  0.030395      2.000000
  0.060790 -0.030395  0.060790      2.000000
  0.030395 -0.060790  0.060790      2.000000
  0.060790  0.060790  0.060790      2.000000
 -0.060790  0.060790  0.060790      2.000000
 -0.060790 -0.060790  0.060790      2.000000
  0.060790 -0.060790  0.060790      2.000000
 


--------------------------------------------------------------------------------------------------------




 Dimension of arrays:
   k-points           NKPTS =     63   k-points in BZ     NKDIM =     63   number of bands    NBANDS=    128
   number of dos      NEDOS =    301   number of ions     NIONS =     16
   non local maximal  LDIM  =      6   non local SUM 2l+1 LMDIM =     18
   total plane-waves  NPLWV =  46656
   max r-space proj   IRMAX =      1   max aug-charges    IRDMAX=   9546
   dimension x,y,z NGX =    36 NGY =   36 NGZ =   36
   dimension x,y,z NGXF=    72 NGYF=   72 NGZF=   72
   support grid    NGXF=    72 NGYF=   72 NGZF=   72
   ions per type =               6   2   3   5
   NGX,Y,Z   is equivalent  to a cutoff of   9.10,  9.10,  9.10 a.u.
   NGXF,Y,Z  is equivalent  to a cutoff of  18.19, 18.19, 18.19 a.u.

 SYSTEM =  unknown system                          
 POSCAR =  Nb-Mo-Ta-W alloy                        

 Startparameter for this run:
   NWRITE =      2    write-flag & timer
   PREC   = accura    normal or accurate (medium, high low for compatibility)
   ISTART =      0    job   : 0-new  1-cont  2-samecut
   ICHARG =      2    charge: 1-file 2-atom 10-const
   ISPIN  =      1    spin polarized calculation?
   LNONCOLLINEAR =      F non collinear calculations
   LSORBIT =      F    spin-orbit coupling
   INIWAV =      1    electr: 0-lowe 1-rand  2-diag
   LASPH  =      F    aspherical Exc in radial PAW
 Electronic Relaxation 1
   ENCUT  =  250.0 eV  18.37 Ry    4.29 a.u.   8.48  8.48  8.48*2*pi/ulx,y,z
   ENINI  =  250.0     initial cutoff
   ENAUG  =  455.7 eV  augmentation charge cutoff
   NELM   =     80;   NELMIN=  2; NELMDL= -5     # of ELM steps 
   EDIFF  = 0.1E-07   stopping-criterion for ELM
   LREAL  =      F    real-space projection
   NLSPLINE    = F    spline interpolate recip. space projectors
   LCOMPAT=      F    compatible to vasp.4.4
   GGA_COMPAT  = T    GGA compatible to vasp.4.4-vasp.4.6
   LMAXPAW     = -100 max onsite density
   LMAXMIX     =    2 max onsite mixed and CHGCAR
   VOSKOWN=      0    Vosko Wilk Nusair interpolation
   ROPT   =    0.00000   0.00000   0.00000   0.00000
 Ionic relaxation
   EDIFFG = -.1E-01   stopping-criterion for IOM
   NSW    =      0    number of steps for IOM
   NBLOCK =      1;   KBLOCK =      1    inner block; outer block 
   IBRION =     -1    ionic relax: 0-MD 1-quasi-New 2-CG
   NFREE  =      0    steps in history (QN), initial steepest desc. (CG)
   ISIF   =      2    stress and relaxation
   IWAVPR =     10    prediction:  0-non 1-charg 2-wave 3-comb
   ISYM   =      2    0-nonsym 1-usesym 2-fastsym
   LCORR  =      T    Harris-Foulkes like correction to forces

   POTIM  = 0.5000    time-step for ionic-motion
   TEIN   =    0.0    initial temperature
   TEBEG  =    0.0;   TEEND  =   0.0 temperature during run
   SMASS  =  -3.00    Nose mass-parameter (am)
   estimated Nose-frequenzy (Omega)   =  0.10E-29 period in steps = 0.13E+47 mass=  -0.989E-27a.u.
   SCALEE = 1.0000    scale energy and forces
   NPACO  =    256;   APACO  = 10.0  distance and # of slots for P.C.
   PSTRESS=    0.0 pullay stress

  Mass of Ions in am
   POMASS =  92.91 95.94180.95183.85
  Ionic Valenz
   ZVAL   =  13.00 14.00 11.00 14.00
  Atomic Wigner-Seitz radii
   RWIGS  =  -1.00 -1.00 -1.00 -1.00
  virtual crystal weights 
   VCA    =   1.00  1.00  1.00  1.00
   NELECT =     209.0000    total number of electrons
   NUPDOWN=      -1.0000    fix difference up-down

 DOS related values:
   EMIN   =  10.00;   EMAX   =-10.00  energy-range for DOS
   EFERMI =   0.00
   ISMEAR =     0;   SIGMA  =   0.02  broadening in eV -4-tet -1-fermi 0-gaus

 Electronic relaxation 2 (details)
   IALGO  =     38    algorithm
   LDIAG  =      T    sub-space diagonalisation (order eigenvalues)
   LSUBROT=      F    optimize rotation matrix (better conditioning)
   TURBO    =      0    0=normal 1=particle mesh
   IRESTART =      0    0=no restart 2=restart with 2 vectors
   NREBOOT  =      0    no. of reboots
   NMIN     =      0    reboot dimension
   EREF     =   0.00    reference energy to select bands
   IMIX   =      4    mixing-type and parameters
     AMIX     =   0.40;   BMIX     =  1.00
     AMIX_MAG =   1.60;   BMIX_MAG =  1.00
     AMIN     =   0.10
     WC   =   100.;   INIMIX=   1;  MIXPRE=   1;  MAXMIX= -45

 Intra band minimization:
   WEIMIN = 0.0000     energy-eigenvalue tresh-hold
   EBREAK =  0.20E-10  absolut break condition
   DEPER  =   0.30     relativ break condition  

   TIME   =   0.40     timestep for ELM

  volume/ion in A,a.u.               =      17.81       120.16
  Fermi-wavevector in a.u.,A,eV,Ry     =   1.476492  2.790165 29.661081  2.180028
  Thomas-Fermi vector in A             =   2.591012
 
 Write flags
   LWAVE        =      F    write WAVECAR
   LDOWNSAMPLE  =      F    k-point downsampling of WAVECAR
   LCHARG       =      F    write CHGCAR
   LVTOT        =      F    write LOCPOT, total local potential
   LVHAR        =      F    write LOCPOT, Hartree potential only
   LELF         =      F    write electronic localiz. function (ELF)
   LORBIT       =      0    0 simple, 1 ext, 2 COOP (PROOUT), +10 PAW based schemes


 Dipole corrections
   LMONO  =      F    monopole corrections only (constant potential shift)
   LDIPOL =      F    correct potential (dipole corrections)
   IDIPOL =      0    1-x, 2-y, 3-z, 4-all directions 
   EPSILON=  1.0000000 bulk dielectric constant

 Core level calculations are selected ICORELEVEL =  1
 Exchange correlation treatment:
   GGA     =    PE    GGA type
   LEXCH   =     8    internal setting for exchange type
   LIBXC   =     F    Libxc                    
   VOSKOWN =     0    Vosko Wilk Nusair interpolation
   LHFCALC =     F    Hartree Fock is set to
   LHFONE  =     F    Hartree Fock one center treatment
   AEXX    =    0.0000 exact exchange contribution

 Linear response parameters
   LEPSILON=     F    determine dielectric tensor
   LRPA    =     F    only Hartree local field effects (RPA)
   LNABLA  =     F    use nabla operator in PAW spheres
   LVEL    =     F    velocity operator in full k-point grid
   CSHIFT  =0.1000    complex shift for real part using Kramers Kronig
   OMEGAMAX=  -1.0    maximum frequency
   DEG_THRESHOLD= 0.2000000E-02 threshold for treating states as degnerate
   RTIME   =   -0.100 relaxation time in fs
  (WPLASMAI=    0.000 imaginary part of plasma frequency in eV, 0.658/RTIME)
   DFIELD  = 0.0000000 0.0000000 0.0000000 field for delta impulse in time
 
  Optional k-point grid parameters
   LKPOINTS_OPT  =     F    use optional k-point grid
   KPOINTS_OPT_MODE=     1    mode for optional k-point grid
 
 Orbital magnetization related:
   ORBITALMAG=     F  switch on orbital magnetization
   LCHIMAG   =     F  perturbation theory with respect to B field
   DQ        =  0.001000  dq finite difference perturbation B field
   LLRAUG    =     F  two centre corrections for induced B field



--------------------------------------------------------------------------------------------------------


 Static calculation
 charge density and potential will be updated during run
 non-spin polarized calculation
 Variant of blocked Davidson
 Davidson routine will perform the subspace rotation
 perform sub-space diagonalisation
    after iterative eigenvector-optimisation
 modified Broyden-mixing scheme, WC =      100.0
 initial mixing is a Kerker type mixing with AMIX =  0.4000 and BMIX =      1.0000
 Hartree-type preconditioning will be used
 using additional bands           23
 reciprocal scheme for non local part
 use partial core corrections
 calculate Harris-corrections to forces 
   (improved forces if not selfconsistent)
 use gradient corrections 
 use of overlap-Matrix (Vanderbilt PP)
 Gauss-broadening in eV      SIGMA  =   0.02


--------------------------------------------------------------------------------------------------------


  energy-cutoff  :      250.00
  volume of cell :      284.89
      direct lattice vectors                 reciprocal lattice vectors
     6.580000000  0.000000000  0.000000000     0.151975684  0.000000000  0.000000000
     0.000000000  6.580000000  0.000000000     0.000000000  0.151975684  0.000000000
     0.000000000  0.000000000  6.580000000     0.000000000  0.000000000  0.151975684

  length of vectors
     6.580000000  6.580000000  6.580000000     0.151975684  0.151975684  0.151975684


 
 k-points in units of 2pi/SCALE and weight: K-Spacing Value to Generate K-Mesh: 0.03
   0.00000000  0.00000000  0.00000000       0.008
   0.03039514  0.00000000  0.00000000       0.016
   0.00000000  0.03039514  0.00000000       0.016
   0.00000000  0.00000000  0.03039514       0.016
   0.06079027  0.00000000  0.00000000       0.016
   0.00000000  0.06079027  0.00000000       0.016
   0.00000000  0.00000000  0.06079027       0.016
   0.03039514  0.03039514  0.00000000       0.016
   0.00000000  0.03039514  0.03039514       0.016
   0.03039514  0.00000000  0.03039514       0.016
  -0.03039514  0.03039514  0.00000000       0.016
  -0.03039514  0.00000000  0.03039514       0.016
   0.00000000 -0.03039514  0.03039514       0.016
   0.06079027  0.03039514  0.00000000       0.016
   0.00000000  0.06079027  0.03039514       0.016
   0.03039514  0.00000000  0.06079027       0.016
  -0.03039514  0.06079027  0.00000000       0.016
  -0.06079027  0.00000000  0.03039514       0.016
   0.00000000  0.03039514  0.06079027       0.016
   0.00000000 -0.06079027  0.03039514       0.016
  -0.03039514  0.00000000  0.06079027       0.016
   0.06079027  0.00000000  0.03039514       0.016
   0.00000000 -0.03039514  0.06079027       0.016
   0.06079027 -0.03039514  0.00000000       0.016
   0.03039514  0.06079027  0.00000000       0.016
   0.06079027  0.06079027  0.00000000       0.016
   0.00000000  0.06079027  0.06079027       0.016
   0.06079027  0.00000000  0.06079027       0.016
  -0.06079027  0.06079027  0.00000000       0.016
  -0.06079027  0.00000000  0.06079027       0.016
   0.00000000 -0.06079027  0.06079027       0.016
   0.03039514  0.03039514  0.03039514       0.016
  -0.03039514  0.03039514  0.03039514       0.016
  -0.03039514 -0.03039514  0.03039514       0.016
   0.03039514 -0.03039514  0.03039514       0.016
   0.06079027  0.03039514  0.03039514       0.016
   0.03039514  0.06079027  0.03039514       0.016
   0.03039514  0.03039514  0.06079027       0.016
  -0.03039514  0.06079027  0.03039514       0.016
  -0.06079027  0.03039514  0.03039514       0.016
  -0.03039514  0.03039514  0.06079027       0.016
  -0.06079027 -0.03039514  0.03039514       0.016
  -0.03039514 -0.06079027  0.03039514       0.016
  -0.03039514 -0.03039514  0.06079027       0.016
   0.03039514 -0.06079027  0.03039514       0.016
   0.06079027 -0.03039514  0.03039514       0.016
   0.03039514 -0.03039514  0.06079027       0.016
   0.06079027  0.06079027  0.03039514       0.016
   0.03039514  0.06079027  0.06079027       0.016
   0.06079027  0.03039514  0.06079027       0.016
  -0.06079027  0.06079027  0.03039514       0.016
  -0.06079027  0.03039514  0.06079027       0.016
  -0.03039514  0.06079027  0.06079027       0.016
  -0.06079027 -0.06079027  0.03039514       0.016
  -0.03039514 -0.06079027  0.06079027       0.016
  -0.06079027 -0.03039514  0.06079027       0.016
   0.06079027 -0.06079027  0.03039514       0.016
   0.06079027 -0.03039514  0.06079027       0.016
   0.03039514 -0.06079027  0.06079027       0.016
   0.06079027  0.06079027  0.06079027       0.016
  -0.06079027  0.06079027  0.06079027       0.016
  -0.06079027 -0.06079027  0.06079027       0.016
   0.06079027 -0.06079027  0.06079027       0.016
 
 k-points in reciprocal lattice and weights: K-Spacing Value to Generate K-Mesh: 0.03
   0.00000000  0.00000000  0.00000000       0.008
   0.20000000  0.00000000  0.00000000       0.016
   0.00000000  0.20000000  0.00000000       0.016
   0.00000000  0.00000000  0.20000000       0.016
   0.40000000  0.00000000  0.00000000       0.016
   0.00000000  0.40000000  0.00000000       0.016
   0.00000000  0.00000000  0.40000000       0.016
   0.20000000  0.20000000  0.00000000       0.016
   0.00000000  0.20000000  0.20000000       0.016
   0.20000000  0.00000000  0.20000000       0.016
  -0.20000000  0.20000000  0.00000000       0.016
  -0.20000000  0.00000000  0.20000000       0.016
   0.00000000 -0.20000000  0.20000000       0.016
   0.40000000  0.20000000  0.00000000       0.016
   0.00000000  0.40000000  0.20000000       0.016
   0.20000000  0.00000000  0.40000000       0.016
  -0.20000000  0.40000000  0.00000000       0.016
  -0.40000000  0.00000000  0.20000000       0.016
   0.00000000  0.20000000  0.40000000       0.016
   0.00000000 -0.40000000  0.20000000       0.016
  -0.20000000  0.00000000  0.40000000       0.016
   0.40000000  0.00000000  0.20000000       0.016
   0.00000000 -0.20000000  0.40000000       0.016
   0.40000000 -0.20000000  0.00000000       0.016
   0.20000000  0.40000000  0.00000000       0.016
   0.40000000  0.40000000  0.00000000       0.016
   0.00000000  0.40000000  0.40000000       0.016
   0.40000000  0.00000000  0.40000000       0.016
  -0.40000000  0.40000000  0.00000000       0.016
  -0.40000000  0.00000000  0.40000000       0.016
   0.00000000 -0.40000000  0.40000000       0.016
   0.20000000  0.20000000  0.20000000       0.016
  -0.20000000  0.20000000  0.20000000       0.016
  -0.20000000 -0.20000000  0.20000000       0.016
   0.20000000 -0.20000000  0.20000000       0.016
   0.40000000  0.20000000  0.20000000       0.016
   0.20000000  0.40000000  0.20000000       0.016
   0.20000000  0.20000000  0.40000000       0.016
  -0.20000000  0.40000000  0.20000000       0.016
  -0.40000000  0.20000000  0.20000000       0.016
  -0.20000000  0.20000000  0.40000000       0.016
  -0.40000000 -0.20000000  0.20000000       0.016
  -0.20000000 -0.40000000  0.20000000       0.016
  -0.20000000 -0.20000000  0.40000000       0.016
   0.20000000 -0.40000000  0.20000000       0.016
   0.40000000 -0.20000000  0.20000000       0.016
   0.20000000 -0.20000000  0.40000000       0.016
   0.40000000  0.40000000  0.20000000       0.016
   0.20000000  0.40000000  0.40000000       0.016
   0.40000000  0.20000000  0.40000000       0.016
  -0.40000000  0.40000000  0.20000000       0.016
  -0.40000000  0.20000000  0.40000000       0.016
  -0.20000000  0.40000000  0.40000000       0.016
  -0.40000000 -0.40000000  0.20000000       0.016
  -0.20000000 -0.40000000  0.40000000       0.016
  -0.40000000 -0.20000000  0.40000000       0.016
   0.40000000 -0.40000000  0.20000000       0.016
   0.40000000 -0.20000000  0.40000000       0.016
   0.20000000 -0.40000000  0.40000000       0.016
   0.40000000  0.40000000  0.40000000       0.016
  -0.40000000  0.40000000  0.40000000       0.016
  -0.40000000 -0.40000000  0.40000000       0.016
   0.40000000 -0.40000000  0.40000000       0.016
 
 position of ions in fractional coordinates (direct lattice) 
   0.25000000  0.25000000  0.75000000
   0.25000000  0.75000000  0.25000000
   0.00000000  0.50000000  0.00000000
   0.00000000  0.50000000  0.50000000
   0.25000000  0.75000000  0.75000000
   0.75000000  0.25000000  0.25000000
   0.50000000  0.50000000  0.00000000
   0.00000000  0.00000000  0.50000000
   0.75000000  0.75000000  0.75000000
   0.00000000  0.00000000  0.00000000
   0.75000000  0.75000000  0.25000000
   0.75000000  0.25000000  0.75000000
   0.50000000  0.00000000  0.50000000
   0.50000000  0.00000000  0.00000000
   0.25000000  0.25000000  0.25000000
   0.50000000  0.50000000  0.50000000
 
 position of ions in cartesian coordinates  (Angst):
   1.64500000  1.64500000  4.93500000
   1.64500000  4.93500000  1.64500000
   0.00000000  3.29000000  0.00000000
   0.00000000  3.29000000  3.29000000
   1.64500000  4.93500000  4.93500000
   4.93500000  1.64500000  1.64500000
   3.29000000  3.29000000  0.00000000
   0.00000000  0.00000000  3.29000000
   4.93500000  4.93500000  4.93500000
   0.00000000  0.00000000  0.00000000
   4.93500000  4.93500000  1.64500000
   4.93500000  1.64500000  4.93500000
   3.29000000  0.00000000  3.29000000
   3.29000000  0.00000000  0.00000000
   1.64500000  1.64500000  1.64500000
   3.29000000  3.29000000  3.29000000
 


--------------------------------------------------------------------------------------------------------


 k-point   1 :   0.0000 0.0000 0.0000  plane waves:    2517
 k-point   2 :   0.2000 0.0000 0.0000  plane waves:    2545
 k-point   3 :   0.0000 0.2000 0.0000  plane waves:    2545
 k-point   4 :   0.0000 0.0000 0.2000  plane waves:    2545
 k-point   5 :   0.4000 0.0000 0.0000  plane waves:    2569
 k-point   6 :   0.0000 0.4000 0.0000  plane waves:    2569
 k-point   7 :   0.0000 0.0000 0.4000  plane waves:    2569
 k-point   8 :   0.2000 0.2000 0.0000  plane waves:    2562
 k-point   9 :   0.0000 0.2000 0.2000  plane waves:    2562
 k-point  10 :   0.2000 0.0000 0.2000  plane waves:    2562
 k-point  11 :  -0.2000 0.2000 0.0000  plane waves:    2562
 k-point  12 :  -0.2000 0.0000 0.2000  plane waves:    2562
 k-point  13 :   0.0000-0.2000 0.2000  plane waves:    2562
 k-point  14 :   0.4000 0.2000 0.0000  plane waves:    2566
 k-point  15 :   0.0000 0.4000 0.2000  plane waves:    2566
 k-point  16 :   0.2000 0.0000 0.4000  plane waves:    2566
 k-point  17 :  -0.2000 0.4000 0.0000  plane waves:    2566
 k-point  18 :  -0.4000 0.0000 0.2000  plane waves:    2566
 k-point  19 :   0.0000 0.2000 0.4000  plane waves:    2566
 k-point  20 :   0.0000-0.4000 0.2000  plane waves:    2566
 k-point  21 :  -0.2000 0.0000 0.4000  plane waves:    2566
 k-point  22 :   0.4000 0.0000 0.2000  plane waves:    2566
 k-point  23 :   0.0000-0.2000 0.4000  plane waves:    2566
 k-point  24 :   0.4000-0.2000 0.0000  plane waves:    2566
 k-point  25 :   0.2000 0.4000 0.0000  plane waves:    2566
 k-point  26 :   0.4000 0.4000 0.0000  plane waves:    2570
 k-point  27 :   0.0000 0.4000 0.4000  plane waves:    2570
 k-point  28 :   0.4000 0.0000 0.4000  plane waves:    2570
 k-point  29 :  -0.4000 0.4000 0.0000  plane waves:    2570
 k-point  30 :  -0.4000 0.0000 0.4000  plane waves:    2570
 k-point  31 :   0.0000-0.4000 0.4000  plane waves:    2570
 k-point  32 :   0.2000 0.2000 0.2000  plane waves:    2572
 k-point  33 :  -0.2000 0.2000 0.2000  plane waves:    2572
 k-point  34 :  -0.2000-0.2000 0.2000  plane waves:    2572
 k-point  35 :   0.2000-0.2000 0.2000  plane waves:    2572
 k-point  36 :   0.4000 0.2000 0.2000  plane waves:    2546
 k-point  37 :   0.2000 0.4000 0.2000  plane waves:    2546
 k-point  38 :   0.2000 0.2000 0.4000  plane waves:    2546
 k-point  39 :  -0.2000 0.4000 0.2000  plane waves:    2546
 k-point  40 :  -0.4000 0.2000 0.2000  plane waves:    2546
 k-point  41 :  -0.2000 0.2000 0.4000  plane waves:    2546
 k-point  42 :  -0.4000-0.2000 0.2000  plane waves:    2546
 k-point  43 :  -0.2000-0.4000 0.2000  plane waves:    2546
 k-point  44 :  -0.2000-0.2000 0.4000  plane waves:    2546
 k-point  45 :   0.2000-0.4000 0.2000  plane waves:    2546
 k-point  46 :   0.4000-0.2000 0.2000  plane waves:    2546
 k-point  47 :   0.2000-0.2000 0.4000  plane waves:    2546
 k-point  48 :   0.4000 0.4000 0.2000  plane waves:    2549
 k-point  49 :   0.2000 0.4000 0.4000  plane waves:    2549
 k-point  50 :   0.4000 0.2000 0.4000  plane waves:    2549
 k-point  51 :  -0.4000 0.4000 0.2000  plane waves:    2549
 k-point  52 :  -0.4000 0.2000 0.4000  plane waves:    2549
 k-point  53 :  -0.2000 0.4000 0.4000  plane waves:    2549
 k-point  54 :  -0.4000-0.4000 0.2000  plane waves:    2549
 k-point  55 :  -0.2000-0.4000 0.4000  plane waves:    2549
 k-point  56 :  -0.4000-0.2000 0.4000  plane waves:    2549
 k-point  57 :   0.4000-0.4000 0.2000  plane waves:    2549
 k-point  58 :   0.4000-0.2000 0.4000  plane waves:    2549
 k-point  59 :   0.2000-0.4000 0.4000  plane waves:    2549
 k-point  60 :   0.4000 0.4000 0.4000  plane waves:    2533
 k-point  61 :  -0.4000 0.4000 0.4000  plane waves:    2533
 k-point  62 :  -0.4000-0.4000 0.4000  plane waves:    2533
 k-point  63 :   0.4000-0.4000 0.4000  plane waves:    2533

 maximum and minimum number of plane-waves per node :       235      194

 maximum number of plane-waves:      2572
 maximum index in each direction: 
   IXMAX=    8   IYMAX=    8   IZMAX=    8
   IXMIN=   -8   IYMIN=   -8   IZMIN=   -8


 parallel 3D FFT for wavefunctions:
    minimum data exchange during FFTs selected (reduces bandwidth)
 parallel 3D FFT for charge:
    minimum data exchange during FFTs selected (reduces bandwidth)


 total amount of memory used by VASP MPI-rank0    48253. kBytes
=======================================================================

   base      :      30000. kBytes
   nonl-proj :       8332. kBytes
   fftplans  :        456. kBytes
   grid      :        919. kBytes
   one-center:         31. kBytes
   wavefun   :       8515. kBytes
 
     INWAV:  cpu time      0.0000: real time      0.0126
 Broyden mixing: mesh for mixing (old mesh)
   NGX = 17   NGY = 17   NGZ = 17
  (NGX  = 72   NGY  = 72   NGZ  = 72)
  gives a total of   4913 points

 initial charge density was supplied:
 charge density of overlapping atoms calculated
 number of electron     209.0000000 magnetization 
 keeping initial charge density in first step


--------------------------------------------------------------------------------------------------------


 Maximum index for augmentation-charges          517 (set IRDMAX)


--------------------------------------------------------------------------------------------------------


 First call to EWALD:  gamma=   0.269
 Maximum number of real-space cells 3x 3x 3
 Maximum number of reciprocal cells 3x 3x 3

    FEWALD:  cpu time      0.0012: real time      0.0012


--------------------------------------- Iteration      1(   1)  ---------------------------------------


    POTLOK:  cpu time      0.0063: real time      0.0233
    SETDIJ:  cpu time      0.0023: real time      0.0024
     EDDAV:  cpu time      3.2043: real time      3.2183
       DOS:  cpu time      0.0057: real time      0.0057
    --------------------------------------------
      LOOP:  cpu time      3.2187: real time      3.2498

 eigenvalue-minimisations  : 16672
 total energy-change (2. order) : 0.1978935E+04  (-0.8057588E+04)
 number of electron     209.0000000 magnetization 
 augmentation part      209.0000000 magnetization 

 Free energy of the ion-electron system (eV)
  ---------------------------------------------------
  alpha Z        PSCENC =      1784.07396419
  Ewald energy   TEWEN  =    -21790.06009998
  -Hartree energ DENC   =     -4048.59818309
  -exchange      EXHF   =         0.00000000
  -V(xc)+E(xc)   XCENC  =       831.54459895
  PAW double counting   =     20178.57979084   -19865.13658842
  entropy T*S    EENTRO =        -0.00066202
  eigenvalues    EBANDS =      -634.75334088
  atomic energy  EATOM  =     25523.28521920
  Solvation  Ediel_sol  =         0.00000000
  ---------------------------------------------------
  free energy    TOTEN  =      1978.93469879 eV

  energy without entropy =     1978.93536081  energy(sigma->0) =     1978.93502980


--------------------------------------------------------------------------------------------------------




--------------------------------------- Iteration      1(   2)  ---------------------------------------


     EDDAV:  cpu time      3.1755: real time      3.1903
       DOS:  cpu time      0.0057: real time      0.0057
    --------------------------------------------
      LOOP:  cpu time      3.1812: real time      3.1961

 eigenvalue-minimisations  : 16488
 total energy-change (2. order) :-0.1978331E+04  (-0.1914848E+04)
 number of electron     209.0000000 magnetization 
 augmentation part      209.0000000 magnetization 

 Free energy of the ion-electron system (eV)
  ---------------------------------------------------
  alpha Z        PSCENC =      1784.07396419
  Ewald energy   TEWEN  =    -21790.06009998
  -Hartree energ DENC   =     -4048.59818309
  -exchange      EXHF   =         0.00000000
  -V(xc)+E(xc)   XCENC  =       831.54459895
  PAW double counting   =     20178.57979084   -19865.13658842
  entropy T*S    EENTRO =        -0.00141444
  eigenvalues    EBANDS =     -2613.08347837
  atomic energy  EATOM  =     25523.28521920
  Solvation  Ediel_sol  =         0.00000000
  ---------------------------------------------------
  free energy    TOTEN  =         0.60380888 eV

  energy without entropy =        0.60522332  energy(sigma->0) =        0.60451610


--------------------------------------------------------------------------------------------------------




--------------------------------------- Iteration      1(   3)  ---------------------------------------


     EDDAV:  cpu time      4.4215: real time      4.4403
       DOS:  cpu time      0.0049: real time      0.0049
    --------------------------------------------
      LOOP:  cpu time      4.4265: real time      4.4452

 eigenvalue-minimisations  : 25400
 total energy-change (2. order) :-0.1804925E+03  (-0.1701276E+03)
 number of electron     209.0000000 magnetization 
 augmentation part      209.0000000 magnetization 

 Free energy of the ion-electron system (eV)
  ---------------------------------------------------
  alpha Z        PSCENC =      1784.07396419
  Ewald energy   TEWEN  =    -21790.06009998
  -Hartree energ DENC   =     -4048.59818309
  -exchange      EXHF   =         0.00000000
  -V(xc)+E(xc)   XCENC  =       831.54459895
  PAW double counting   =     20178.57979084   -19865.13658842
  entropy T*S    EENTRO =        -0.00280859
  eigenvalues    EBANDS =     -2793.57454145
  atomic energy  EATOM  =     25523.28521920
  Solvation  Ediel_sol  =         0.00000000
  ---------------------------------------------------
  free energy    TOTEN  =      -179.88864835 eV

  energy without entropy =     -179.88583976  energy(sigma->0) =     -179.88724405


--------------------------------------------------------------------------------------------------------




--------------------------------------- Iteration      1(   4)  ---------------------------------------


     EDDAV:  cpu time      4.2769: real time      4.2952
       DOS:  cpu time      0.0050: real time      0.0050
    --------------------------------------------
      LOOP:  cpu time      4.2818: real time      4.3002

 eigenvalue-minimisations  : 24600
 total energy-change (2. order) :-0.1259825E+02  (-0.1227000E+02)
 number of electron     209.0000000 magnetization 
 augmentation part      209.0000000 magnetization 

 Free energy of the ion-electron system (eV)
  ---------------------------------------------------
  alpha Z        PSCENC =      1784.07396419
  Ewald energy   TEWEN  =    -21790.06009998
  -Hartree energ DENC   =     -4048.59818309
  -exchange      EXHF   =         0.00000000
  -V(xc)+E(xc)   XCENC  =       831.54459895
  PAW double counting   =     20178.57979084   -19865.13658842
  entropy T*S    EENTRO =        -0.00311303
  eigenvalues    EBANDS =     -2806.17248740
  atomic energy  EATOM  =     25523.28521920
  Solvation  Ediel_sol  =         0.00000000
  ---------------------------------------------------
  free energy    TOTEN  =      -192.48689874 eV

  energy without entropy =     -192.48378571  energy(sigma->0) =     -192.48534223


--------------------------------------------------------------------------------------------------------




--------------------------------------- Iteration      1(   5)  ---------------------------------------


     EDDAV:  cpu time      4.4828: real time      4.5058
       DOS:  cpu time      0.0055: real time      0.0055
    CHARGE:  cpu time      0.0879: real time      0.0883
    MIXING:  cpu time      0.0004: real time      0.0004
    --------------------------------------------
      LOOP:  cpu time      4.5766: real time      4.5999

 eigenvalue-minimisations  : 25400
 total energy-change (2. order) :-0.7393748E+00  (-0.7346009E+00)
 number of electron     208.9999847 magnetization 
 augmentation part       41.9896764 magnetization 

 Broyden mixing:
  rms(total) = 0.52661E+01    rms(broyden)= 0.52651E+01
  rms(prec ) = 0.57906E+01
  weight for this iteration     100.00

 Free energy of the ion-electron system (eV)
  ---------------------------------------------------
  alpha Z        PSCENC =      1784.07396419
  Ewald energy   TEWEN  =    -21790.06009998
  -Hartree energ DENC   =     -4048.59818309
  -exchange      EXHF   =         0.00000000
  -V(xc)+E(xc)   XCENC  =       831.54459895
  PAW double counting   =     20178.57979084   -19865.13658842
  entropy T*S    EENTRO =        -0.00309678
  eigenvalues    EBANDS =     -2806.91187847
  atomic energy  EATOM  =     25523.28521920
  Solvation  Ediel_sol  =         0.00000000
  ---------------------------------------------------
  free energy    TOTEN  =      -193.22627355 eV

  energy without entropy =     -193.22317677  energy(sigma->0) =     -193.22472516


--------------------------------------------------------------------------------------------------------




--------------------------------------- Iteration      1(   6)  ---------------------------------------


    POTLOK:  cpu time      0.0045: real time      0.0047
    SETDIJ:  cpu time      0.0018: real time      0.0018
     EDDAV:  cpu time      3.6270: real time      3.6427
       DOS:  cpu time      0.0048: real time      0.0048
    CHARGE:  cpu time      0.0862: real time      0.0865
    MIXING:  cpu time      0.0003: real time      0.0003
    --------------------------------------------
      LOOP:  cpu time      3.7247: real time      3.7408

 eigenvalue-minimisations  : 19720
 total energy-change (2. order) : 0.7206000E+01  (-0.1963762E+01)
 number of electron     208.9999842 magnetization 
 augmentation part       43.5290810 magnetization 

 Broyden mixing:
  rms(total) = 0.19897E+01    rms(broyden)= 0.19894E+01
  rms(prec ) = 0.24834E+01
  weight for this iteration     100.00

 eigenvalues of (default mixing * dielectric matrix)
  average eigenvalue GAMMA=   1.4917
  1.4917

 Free energy of the ion-electron system (eV)
  ---------------------------------------------------
  alpha Z        PSCENC =      1784.07396419
  Ewald energy   TEWEN  =    -21790.06009998
  -Hartree energ DENC   =     -3832.55566507
  -exchange      EXHF   =         0.00000000
  -V(xc)+E(xc)   XCENC  =       820.86835348
  PAW double counting   =     24141.34803481   -23852.10409642
  entropy T*S    EENTRO =        -0.00290396
  eigenvalues    EBANDS =     -2980.87308025
  atomic energy  EATOM  =     25523.28521920
  Solvation  Ediel_sol  =         0.00000000
  ---------------------------------------------------
  free energy    TOTEN  =      -186.02027400 eV

  energy without entropy =     -186.01737004  energy(sigma->0) =     -186.01882202


--------------------------------------------------------------------------------------------------------




--------------------------------------- Iteration      1(   7)  ---------------------------------------


    POTLOK:  cpu time      0.0045: real time      0.0047
    SETDIJ:  cpu time      0.0017: real time      0.0017
     EDDAV:  cpu time      4.1620: real time      4.1799
       DOS:  cpu time      0.0049: real time      0.0049
    CHARGE:  cpu time      0.0868: real time      0.0871
    MIXING:  cpu time      0.0003: real time      0.0003
    --------------------------------------------
      LOOP:  cpu time      4.2601: real time      4.2786

 eigenvalue-minimisations  : 23784
 total energy-change (2. order) :-0.2116688E+00  (-0.1750603E+01)
 number of electron     208.9999844 magnetization 
 augmentation part       43.3552433 magnetization 

 Broyden mixing:
  rms(total) = 0.10539E+01    rms(broyden)= 0.10535E+01
  rms(prec ) = 0.24377E+01
  weight for this iteration     100.00

 eigenvalues of (default mixing * dielectric matrix)
  average eigenvalue GAMMA=   1.0751
  1.6276  0.5227

 Free energy of the ion-electron system (eV)
  ---------------------------------------------------
  alpha Z        PSCENC =      1784.07396419
  Ewald energy   TEWEN  =    -21790.06009998
  -Hartree energ DENC   =     -3760.60954364
  -exchange      EXHF   =         0.00000000
  -V(xc)+E(xc)   XCENC  =       816.72334309
  PAW double counting   =     26634.21103582   -26353.74440030
  entropy T*S    EENTRO =        -0.00212556
  eigenvalues    EBANDS =     -3040.10933562
  atomic energy  EATOM  =     25523.28521920
  Solvation  Ediel_sol  =         0.00000000
  ---------------------------------------------------
  free energy    TOTEN  =      -186.23194280 eV

  energy without entropy =     -186.22981724  energy(sigma->0) =     -186.23088002


--------------------------------------------------------------------------------------------------------




--------------------------------------- Iteration      1(   8)  ---------------------------------------


    POTLOK:  cpu time      0.0045: real time      0.0048
    SETDIJ:  cpu time      0.0017: real time      0.0017
     EDDAV:  cpu time      3.8809: real time      3.8974
       DOS:  cpu time      0.0050: real time      0.0050
    CHARGE:  cpu time      0.0857: real time      0.0860
    MIXING:  cpu time      0.0002: real time      0.0002
    --------------------------------------------
      LOOP:  cpu time      3.9781: real time      3.9951

 eigenvalue-minimisations  : 21704
 total energy-change (2. order) : 0.2275103E+01  (-0.8000187E+00)
 number of electron     208.9999843 magnetization 
 augmentation part       43.7939252 magnetization 

 Broyden mixing:
  rms(total) = 0.35013E+00    rms(broyden)= 0.34947E+00
  rms(prec ) = 0.46728E+00
  weight for this iteration     100.00

 eigenvalues of (default mixing * dielectric matrix)
  average eigenvalue GAMMA=   1.1442
  1.7355  1.2512  0.4458

 Free energy of the ion-electron system (eV)
  ---------------------------------------------------
  alpha Z        PSCENC =      1784.07396419
  Ewald energy   TEWEN  =    -21790.06009998
  -Hartree energ DENC   =     -3718.98878733
  -exchange      EXHF   =         0.00000000
  -V(xc)+E(xc)   XCENC  =       814.92945148
  PAW double counting   =     27559.34976909   -27283.03350454
  entropy T*S    EENTRO =        -0.00240124
  eigenvalues    EBANDS =     -3073.51045042
  atomic energy  EATOM  =     25523.28521920
  Solvation  Ediel_sol  =         0.00000000
  ---------------------------------------------------
  free energy    TOTEN  =      -183.95683954 eV

  energy without entropy =     -183.95443830  energy(sigma->0) =     -183.95563892


--------------------------------------------------------------------------------------------------------




--------------------------------------- Iteration      1(   9)  ---------------------------------------


    POTLOK:  cpu time      0.0045: real time      0.0047
    SETDIJ:  cpu time      0.0017: real time      0.0017
     EDDAV:  cpu time      4.0166: real time      4.0338
       DOS:  cpu time      0.0051: real time      0.0051
    CHARGE:  cpu time      0.0883: real time      0.0886
    MIXING:  cpu time      0.0003: real time      0.0003
    --------------------------------------------
      LOOP:  cpu time      4.1165: real time      4.1342

 eigenvalue-minimisations  : 22616
 total energy-change (2. order) :-0.9092919E-01  (-0.1265960E+00)
 number of electron     208.9999844 magnetization 
 augmentation part       43.7731513 magnetization 

 Broyden mixing:
  rms(total) = 0.28964E+00    rms(broyden)= 0.28954E+00
  rms(prec ) = 0.46717E+00
  weight for this iteration     100.00

 eigenvalues of (default mixing * dielectric matrix)
  average eigenvalue GAMMA=   1.1712
  2.0594  1.7101  0.5106  0.4045

 Free energy of the ion-electron system (eV)
  ---------------------------------------------------
  alpha Z        PSCENC =      1784.07396419
  Ewald energy   TEWEN  =    -21790.06009998
  -Hartree energ DENC   =     -3718.18680775
  -exchange      EXHF   =         0.00000000
  -V(xc)+E(xc)   XCENC  =       814.90227629
  PAW double counting   =     27809.93411738   -27532.28723417
  entropy T*S    EENTRO =        -0.00264823
  eigenvalues    EBANDS =     -3075.70655568
  atomic energy  EATOM  =     25523.28521920
  Solvation  Ediel_sol  =         0.00000000
  ---------------------------------------------------
  free energy    TOTEN  =      -184.04776874 eV

  energy without entropy =     -184.04512051  energy(sigma->0) =     -184.04644462


--------------------------------------------------------------------------------------------------------




--------------------------------------- Iteration      1(  10)  ---------------------------------------


    POTLOK:  cpu time      0.0045: real time      0.0047
    SETDIJ:  cpu time      0.0017: real time      0.0017
     EDDAV:  cpu time      3.7853: real time      3.8009
       DOS:  cpu time      0.0048: real time      0.0049
    CHARGE:  cpu time      0.0860: real time      0.0863
    MIXING:  cpu time      0.0003: real time      0.0003
    --------------------------------------------
      LOOP:  cpu time      3.8827: real time      3.8988

 eigenvalue-minimisations  : 20848
 total energy-change (2. order) : 0.3678772E-01  (-0.2893172E-01)
 number of electron     208.9999845 magnetization 
 augmentation part       43.7277346 magnetization 

 Broyden mixing:
  rms(total) = 0.12778E+00    rms(broyden)= 0.12768E+00
  rms(prec ) = 0.22006E+00
  weight for this iteration     100.00

 eigenvalues of (default mixing * dielectric matrix)
  average eigenvalue GAMMA=   1.1682
  2.5304  1.7303  0.7876  0.4303  0.3626

 Free energy of the ion-electron system (eV)
  ---------------------------------------------------
  alpha Z        PSCENC =      1784.07396419
  Ewald energy   TEWEN  =    -21790.06009998
  -Hartree energ DENC   =     -3721.59399577
  -exchange      EXHF   =         0.00000000
  -V(xc)+E(xc)   XCENC  =       815.05251001
  PAW double counting   =     28002.01112650   -27721.88571718
  entropy T*S    EENTRO =        -0.00244031
  eigenvalues    EBANDS =     -3074.89154768
  atomic energy  EATOM  =     25523.28521920
  Solvation  Ediel_sol  =         0.00000000
  ---------------------------------------------------
  free energy    TOTEN  =      -184.01098101 eV

  energy without entropy =     -184.00854071  energy(sigma->0) =     -184.00976086


--------------------------------------------------------------------------------------------------------




--------------------------------------- Iteration      1(  11)  ---------------------------------------


    POTLOK:  cpu time      0.0045: real time      0.0047
    SETDIJ:  cpu time      0.0017: real time      0.0017
     EDDAV:  cpu time      3.8317: real time      3.8476
       DOS:  cpu time      0.0047: real time      0.0047
    CHARGE:  cpu time      0.0857: real time      0.0860
    MIXING:  cpu time      0.0003: real time      0.0003
    --------------------------------------------
      LOOP:  cpu time      3.9286: real time      3.9451

 eigenvalue-minimisations  : 21304
 total energy-change (2. order) : 0.4598398E-02  (-0.9685839E-02)
 number of electron     208.9999845 magnetization 
 augmentation part       43.6946328 magnetization 

 Broyden mixing:
  rms(total) = 0.44289E-01    rms(broyden)= 0.44230E-01
  rms(prec ) = 0.10305E+00
  weight for this iteration     100.00

 eigenvalues of (default mixing * dielectric matrix)
  average eigenvalue GAMMA=   1.0748
  2.5240  1.7110  0.8468  0.5925  0.4421  0.3327

 Free energy of the ion-electron system (eV)
  ---------------------------------------------------
  alpha Z        PSCENC =      1784.07396419
  Ewald energy   TEWEN  =    -21790.06009998
  -Hartree energ DENC   =     -3724.99906750
  -exchange      EXHF   =         0.00000000
  -V(xc)+E(xc)   XCENC  =       815.20088918
  PAW double counting   =     28097.93801108   -27815.70013389
  entropy T*S    EENTRO =        -0.00252583
  eigenvalues    EBANDS =     -3073.74263907
  atomic energy  EATOM  =     25523.28521920
  Solvation  Ediel_sol  =         0.00000000
  ---------------------------------------------------
  free energy    TOTEN  =      -184.00638262 eV

  energy without entropy =     -184.00385679  energy(sigma->0) =     -184.00511970


--------------------------------------------------------------------------------------------------------




--------------------------------------- Iteration      1(  12)  ---------------------------------------


    POTLOK:  cpu time      0.0045: real time      0.0047
    SETDIJ:  cpu time      0.0017: real time      0.0017
     EDDAV:  cpu time      3.8357: real time      3.8520
       DOS:  cpu time      0.0050: real time      0.0050
    CHARGE:  cpu time      0.0856: real time      0.0859
    MIXING:  cpu time      0.0004: real time      0.0004
    --------------------------------------------
      LOOP:  cpu time      3.9329: real time      3.9497

 eigenvalue-minimisations  : 21432
 total energy-change (2. order) : 0.3982803E-02  (-0.2241414E-02)
 number of electron     208.9999845 magnetization 
[...]
     33     -25.0220      2.00000
     34     -24.9971      2.00000
     35     -24.4602      2.00000
     36     -24.3827      2.00000
     37     -24.3009      2.00000
     38     -24.2556      2.00000
     39     -24.2261      2.00000
     40     -24.1953      2.00000
     41     -24.1802      2.00000
     42     -24.0443      2.00000
     43     -23.9778      2.00000
     44     -21.2430      2.00000
     45     -21.2059      2.00000
     46     -21.1528      2.00000
     47     -21.1062      2.00000
     48     -21.0320      2.00000
     49     -20.9733      2.00000
     50     -20.9334      2.00000
     51     -20.9239      2.00000
     52     -20.9023      2.00000
     53     -20.8971      2.00000
     54     -20.8815      2.00000
     55     -20.8512      2.00000
     56     -20.6898      2.00000
     57     -20.6592      2.00000
     58     -20.5712      2.00000
     59     -20.5600      2.00000
     60     -20.5079      2.00000
     61     -20.4762      2.00000
     62       4.1474      2.00000
     63       4.7124      2.00000
     64       4.8677      2.00000
     65       5.2008      2.00000
     66       5.6006      2.00000
     67       5.8333      2.00000
     68       5.9348      2.00000
     69       6.5833      2.00000
     70       6.8152      2.00000
     71       6.8539      2.00000
     72       6.8837      2.00000
     73       6.9047      2.00000
     74       6.9452      2.00000
     75       7.0782      2.00000
     76       7.1089      2.00000
     77       7.1558      2.00000
     78       7.1981      2.00000
     79       7.2503      2.00000
     80       7.3083      2.00000
     81       7.3413      2.00000
     82       7.6175      2.00000
     83       7.6461      2.00000
     84       7.7004      2.00000
     85       7.7841      2.00000
     86       7.8069      2.00000
     87       7.8413      2.00000
     88       7.8730      2.00000
     89       7.9086      2.00000
     90       7.9327      2.00000
     91       7.9561      2.00000
     92       7.9930      2.00000
     93       8.0520      2.00000
     94       8.0942      2.00000
     95       8.1175      2.00000
     96       8.1345      2.00000
     97       8.1639      2.00000
     98       8.2047      2.00000
     99       8.2439      2.00000
    100       8.2579      2.00000
    101       8.2718      2.00000
    102       8.3015      2.00000
    103       8.3603      2.00000
    104       8.3930      2.00000
    105       8.4551      2.00000
    106       8.4796      2.00000
    107       8.5089      2.00000
    108       8.5604      2.00000
    109       8.9554      2.00000
    110      11.7319      0.00000
    111      11.8204      0.00000
    112      11.9144      0.00000
    113      11.9470      0.00000
    114      11.9987      0.00000
    115      12.0786      0.00000
    116      12.1496      0.00000
    117      12.1825      0.00000
    118      12.2475      0.00000
    119      12.3186      0.00000
    120      12.4024      0.00000
    121      12.4408      0.00000
    122      12.4795      0.00000
    123      12.5202      0.00000
    124      12.5663      0.00000
    125      12.6221      0.00000
    126      12.6780      0.00000
    127      12.7557      0.00000
    128      12.8083      0.00000

 k-point    63 :       0.4000   -0.4000    0.4000
  band No.  band energies     occupation 
      1     -64.0626      2.00000
      2     -64.0250      2.00000
      3     -63.9483      2.00000
      4     -63.9385      2.00000
      5     -63.9016      2.00000
      6     -50.9107      2.00000
      7     -50.8961      2.00000
      8     -44.8563      2.00000
      9     -44.8260      2.00000
     10     -44.8163      2.00000
     11     -44.7813      2.00000
     12     -44.6577      2.00000
     13     -44.6387      2.00000
     14     -28.4026      2.00000
     15     -28.3823      2.00000
     16     -28.3620      2.00000
     17     -28.3517      2.00000
     18     -28.3284      2.00000
     19     -28.2881      2.00000
     20     -28.1785      2.00000
     21     -28.1511      2.00000
     22     -28.1318      2.00000
     23     -28.1198      2.00000
     24     -28.0906      2.00000
     25     -28.0357      2.00000
     26     -28.0260      2.00000
     27     -28.0082      2.00000
     28     -27.9830      2.00000
     29     -25.1027      2.00000
     30     -25.0822      2.00000
     31     -25.0411      2.00000
     32     -25.0354      2.00000
     33     -25.0132      2.00000
     34     -24.9917      2.00000
     35     -24.4605      2.00000
     36     -24.3829      2.00000
     37     -24.3010      2.00000
     38     -24.2557      2.00000
     39     -24.2272      2.00000
     40     -24.1954      2.00000
     41     -24.1797      2.00000
     42     -24.0441      2.00000
     43     -23.9775      2.00000
     44     -21.2436      2.00000
     45     -21.2083      2.00000
     46     -21.1532      2.00000
     47     -21.1065      2.00000
     48     -21.0322      2.00000
     49     -20.9746      2.00000
     50     -20.9333      2.00000
     51     -20.9239      2.00000
     52     -20.8998      2.00000
     53     -20.8976      2.00000
     54     -20.8758      2.00000
     55     -20.8515      2.00000
     56     -20.6899      2.00000
     57     -20.6593      2.00000
     58     -20.5715      2.00000
     59     -20.5599      2.00000
     60     -20.5089      2.00000
     61     -20.4773      2.00000
     62       4.1866      2.00000
     63       4.6166      2.00000
     64       4.8456      2.00000
     65       5.3067      2.00000
     66       5.5701      2.00000
     67       5.7857      2.00000
     68       6.0512      2.00000
     69       6.5023      2.00000
     70       6.8074      2.00000
     71       6.8501      2.00000
     72       6.8653      2.00000
     73       6.9042      2.00000
     74       6.9983      2.00000
     75       7.0542      2.00000
     76       7.1537      2.00000
     77       7.1711      2.00000
     78       7.2094      2.00000
     79       7.2486      2.00000
     80       7.2770      2.00000
     81       7.3141      2.00000
     82       7.5969      2.00000
     83       7.6402      2.00000
     84       7.7155      2.00000
     85       7.7798      2.00000
     86       7.7897      2.00000
     87       7.8290      2.00000
     88       7.8847      2.00000
     89       7.9242      2.00000
     90       7.9429      2.00000
     91       7.9640      2.00000
     92       7.9963      2.00000
     93       8.0667      2.00000
     94       8.0894      2.00000
     95       8.1200      2.00000
     96       8.1438      2.00000
     97       8.1787      2.00000
     98       8.2084      2.00000
     99       8.2340      2.00000
    100       8.2428      2.00000
    101       8.2701      2.00000
    102       8.2946      2.00000
    103       8.3595      2.00000
    104       8.3804      2.00000
    105       8.4196      2.00000
    106       8.4676      2.00000
    107       8.5302      2.00000
    108       8.6111      2.00000
    109       8.9395      2.00000
    110      11.7647      0.00000
    111      11.8131      0.00000
    112      11.9114      0.00000
    113      11.9595      0.00000
    114      12.0195      0.00000
    115      12.0700      0.00000
    116      12.1424      0.00000
    117      12.1792      0.00000
    118      12.2504      0.00000
    119      12.3263      0.00000
    120      12.3550      0.00000
    121      12.3862      0.00000
    122      12.4686      0.00000
    123      12.5290      0.00000
    124      12.5607      0.00000
    125      12.6286      0.00000
    126      12.7041      0.00000
    127      12.7756      0.00000
    128      12.8322      0.00000


--------------------------------------------------------------------------------------------------------


 soft charge-density along one line, spin component           1
         0         1         2         3         4         5         6         7         8         9
 total charge-density along one line
 
 pseudopotential strength for first ion, spin component:           1
  5.795 -20.332  -0.000  -0.001   0.002   0.001   0.002  -0.005
-20.332   9.243  -0.001  -0.001   0.003   0.000   0.000  -0.000
 -0.000  -0.001  -9.762  -0.003  -0.002   6.010   0.003   0.002
 -0.001  -0.001  -0.003  -9.765  -0.003   0.003   6.013   0.003
  0.002   0.003  -0.002  -0.003  -9.765   0.002   0.003   6.013
  0.001   0.000   6.010   0.003   0.002   7.936  -0.002  -0.001
  0.002   0.000   0.003   6.013   0.003  -0.002   7.934  -0.002
 -0.005  -0.000   0.002   0.003   6.013  -0.001  -0.002   7.934
 -0.001  -0.001   0.002  -0.000  -0.000  -0.003   0.000   0.001
 -0.002  -0.001  -0.001  -0.000  -0.000   0.001   0.001   0.000
 -0.001  -0.000   0.000  -0.001  -0.001  -0.000   0.001   0.001
 -0.002  -0.001  -0.000   0.002  -0.001   0.000  -0.003   0.001
 -0.001  -0.000   0.000  -0.000   0.002  -0.000  -0.000  -0.002
 -0.002  -0.001   0.002  -0.000  -0.000  -0.004   0.000   0.001
 -0.003  -0.001  -0.001  -0.000  -0.000   0.002   0.001   0.000
 -0.001  -0.000   0.000  -0.001  -0.001  -0.000   0.001   0.001
 -0.003  -0.001  -0.000   0.002  -0.001   0.000  -0.004   0.002
 -0.002  -0.000   0.000  -0.000   0.002  -0.001  -0.000  -0.002
 total augmentation occupancy for first ion, spin component:           1
  1.995  -0.048   0.000   0.000  -0.000   0.000   0.000  -0.001  -0.005  -0.006  -0.002  -0.006  -0.003   0.004   0.005   0.002
 -0.048   1.295   0.002   0.001  -0.003   0.000   0.001  -0.002  -0.001  -0.026  -0.019  -0.026  -0.033  -0.005   0.013   0.008
  0.000   0.002   1.996   0.000   0.000  -0.031  -0.000  -0.001  -0.015   0.003  -0.001   0.004  -0.001   0.009  -0.002   0.001
  0.000   0.001   0.000   1.996   0.000  -0.000  -0.031  -0.000   0.004   0.006  -0.001  -0.014  -0.000  -0.002  -0.004   0.001
 -0.000  -0.003   0.000   0.000   1.996  -0.001  -0.000  -0.031   0.006   0.004   0.000   0.003   0.000  -0.004  -0.002  -0.000
  0.000   0.000  -0.031  -0.000  -0.001   0.069   0.000   0.001   0.013  -0.001  -0.001  -0.005  -0.002  -0.009   0.001   0.001
  0.000   0.001  -0.000  -0.031  -0.000   0.000   0.067   0.000  -0.004  -0.010   0.004   0.013   0.000   0.002   0.006  -0.002
 -0.001  -0.002  -0.001  -0.000  -0.031   0.001   0.000   0.067  -0.010  -0.004   0.005  -0.001  -0.009   0.006   0.002  -0.002
 -0.005  -0.001  -0.015   0.004   0.006   0.013  -0.004  -0.010   3.313  -0.064   0.034  -0.069  -0.000  -1.388   0.029  -0.016
 -0.006  -0.026   0.003   0.006   0.004  -0.001  -0.010  -0.004  -0.064   3.305  -0.019   0.016   0.038   0.029  -1.386   0.009
 -0.002  -0.019  -0.001  -0.001   0.000  -0.001   0.004   0.005   0.034  -0.019   2.577  -0.021   0.043  -0.015   0.009  -1.170
 -0.006  -0.026   0.004  -0.014   0.003  -0.005   0.013  -0.001  -0.069   0.016  -0.021   3.317  -0.039   0.030  -0.017   0.010
 -0.003  -0.033  -0.001  -0.000   0.000  -0.002   0.000  -0.009  -0.000   0.038   0.043  -0.039   2.627   0.000  -0.018  -0.016
  0.004  -0.005   0.009  -0.002  -0.004  -0.009   0.002   0.006  -1.388   0.029  -0.015   0.030   0.000   0.594  -0.014   0.007
  0.005   0.013  -0.002  -0.004  -0.002   0.001   0.006   0.002   0.029  -1.386   0.009  -0.017  -0.018  -0.014   0.594  -0.004
  0.002   0.008   0.001   0.001  -0.000   0.001  -0.002  -0.002  -0.016   0.009  -1.170   0.010  -0.016   0.007  -0.004   0.539
  0.005   0.013  -0.003   0.009  -0.002   0.003  -0.008   0.001   0.030  -0.017   0.009  -1.387   0.017  -0.014   0.011  -0.004
  0.003   0.014   0.001   0.000   0.000   0.001  -0.000   0.004  -0.000  -0.018  -0.016   0.018  -1.189   0.000   0.009   0.005


------------------------ aborting loop because EDIFF is reached ----------------------------------------


    CHARGE:  cpu time      0.0901: real time      0.0904
    FORLOC:  cpu time      0.0005: real time      0.0005
    FORNL :  cpu time      0.8126: real time      0.8151
    STRESS:  cpu time      1.0017: real time      1.0055
    FORCOR:  cpu time      0.0062: real time      0.0062
    FORHAR:  cpu time      0.0015: real time      0.0016
    MIXING:  cpu time      0.0007: real time      0.0007
    OFIELD:  cpu time      0.0000: real time      0.0000

  FORCE on cell =-STRESS in cart. coord.  units (eV):
  Direction    XX          YY          ZZ          XY          YZ          ZX
  --------------------------------------------------------------------------------------
  Alpha Z  1784.07396  1784.07396  1784.07396
  Ewald   -7279.88214 -7273.17245 -7237.07481     4.21537    -0.00000    -6.32305
  Hartree  1226.86964  1231.67824  1265.65535     3.25213     0.05955    -5.75287
  E(xc)    -959.29576  -959.29233  -959.27879     0.01500     0.00035    -0.00235
  Local    1637.42528  1627.74183  1557.24003    -7.79859    -0.17020    11.60577
  n-local  -275.16037  -277.45271  -277.99093    -0.28794    -0.03268     0.78632
  augment   574.26072   574.11460   574.17029     0.09104     0.02031     0.13021
  Kinetic  3268.46657  3269.04669  3269.83448     0.36695     0.16737    -0.78725
  Fock        0.00000     0.00000     0.00000     0.00000     0.00000     0.00000
  -------------------------------------------------------------------------------------
  Total     -23.24210   -23.26217   -23.37040    -0.14604     0.04469    -0.34321
  in kB    -130.70984  -130.82273  -131.43137    -0.82132     0.25133    -1.93018
  external pressure =     -130.99 kB  Pullay stress =        0.00 kB


 VOLUME and BASIS-vectors are now :
 -----------------------------------------------------------------------------
  energy-cutoff  :      250.00
  volume of cell :      284.89
      direct lattice vectors                 reciprocal lattice vectors
     6.580000000  0.000000000  0.000000000     0.151975684  0.000000000  0.000000000
     0.000000000  6.580000000  0.000000000     0.000000000  0.151975684  0.000000000
     0.000000000  0.000000000  6.580000000     0.000000000  0.000000000  0.151975684

  length of vectors
     6.580000000  6.580000000  6.580000000     0.151975684  0.151975684  0.151975684


 FORCES acting on ions
    electron-ion (+dipol)            ewald-force                    non-local-force                 convergence-correction
 -----------------------------------------------------------------------------------------------
   0.518E+02 0.993E+01 -.309E+02   -.510E+02 -.102E+02 0.306E+02   -.239E+00 0.151E+00 0.401E-01   0.323E-04 -.610E-06 -.215E-04
   0.517E+02 -.995E+01 0.309E+02   -.510E+02 0.102E+02 -.306E+02   -.208E+00 -.155E+00 -.393E-01   0.160E-04 -.146E-04 0.159E-04
   0.408E+02 -.617E+02 0.197E-01   -.408E+02 0.612E+02 0.557E-13   0.980E-01 0.581E-01 -.219E-01   0.163E-04 -.378E-04 -.322E-04
   0.408E+02 -.618E+02 -.206E-01   -.408E+02 0.612E+02 -.567E-13   0.108E+00 0.114E+00 0.214E-01   0.157E-04 -.419E-04 0.315E-04
   0.517E+02 -.991E+01 -.309E+02   -.510E+02 0.102E+02 0.306E+02   -.162E+00 -.148E+00 0.178E-01   0.142E-04 -.763E-05 -.164E-04
   -.517E+02 0.994E+01 0.309E+02   0.510E+02 -.102E+02 -.306E+02   0.231E+00 0.146E+00 -.429E-01   -.245E-04 0.212E-05 0.951E-05
   -.439E+02 -.663E+02 0.198E-01   0.439E+02 0.659E+02 -.131E-13   -.501E-01 0.541E-01 -.128E-01   0.784E-05 -.144E-04 -.330E-04
   0.438E+02 0.662E+02 -.199E-01   -.439E+02 -.659E+02 -.853E-13   0.673E-01 0.227E-01 0.184E-01   0.466E-06 0.188E-04 0.352E-04
   -.439E+02 -.839E+01 -.261E+02   0.431E+02 0.863E+01 0.259E+02   0.837E-01 -.742E-01 -.233E-02   -.877E-05 -.692E-05 -.577E-05
   0.345E+02 0.523E+02 0.174E-01   -.345E+02 -.518E+02 0.561E-13   0.676E-01 0.128E-01 -.127E-01   0.190E-05 0.219E-04 -.246E-04
   -.439E+02 -.837E+01 0.261E+02   0.431E+02 0.863E+01 -.259E+02   0.205E-01 -.457E-01 0.214E-01   -.130E-04 -.617E-05 0.293E-05
   -.554E+02 0.108E+02 -.331E+02   0.549E+02 -.110E+02 0.329E+02   -.133E+00 -.505E-01 -.508E-01   0.254E-05 0.927E-05 -.214E-05
   -.440E+02 0.663E+02 -.214E-01   0.439E+02 -.659E+02 0.282E-13   0.292E-01 0.107E-01 0.111E-01   -.147E-04 0.196E-04 0.294E-04
   -.439E+02 0.663E+02 0.204E-01   0.439E+02 -.659E+02 -.288E-14   0.498E-02 0.455E-01 -.143E-01   -.457E-05 0.339E-04 -.299E-04
   0.555E+02 0.108E+02 0.331E+02   -.549E+02 -.110E+02 -.329E+02   0.126E+00 -.607E-01 0.514E-01   0.127E-04 0.915E-05 0.127E-04
   -.439E+02 -.663E+02 -.174E-01   0.439E+02 0.659E+02 -.565E-13   0.103E-01 -.463E-01 0.116E-01   -.118E-04 -.242E-04 0.315E-04
 -----------------------------------------------------------------------------------------------
   -.542E-01 -.346E-01 0.390E-02   0.554E-12 -.114E-12 0.287E-13   0.542E-01 0.346E-01 -.390E-02   0.426E-04 -.393E-04 0.319E-05
 
 
 POSITION                                       TOTAL-FORCE (eV/Angst)
 -----------------------------------------------------------------------------------
      1.64500      1.64500      4.93500         0.542113     -0.113759     -0.226215
      1.64500      4.93500      1.64500         0.529774      0.091895      0.228653
      0.00000      3.29000      0.00000         0.098069     -0.455290     -0.002198
      0.00000      3.29000      3.29000         0.097353     -0.486387      0.000825
      1.64500      4.93500      4.93500         0.563538      0.135691     -0.241927
      4.93500      1.64500      1.64500        -0.509758     -0.113096      0.226070
      3.29000      3.29000      0.00000         0.002556     -0.345756      0.006970
      0.00000      0.00000      3.29000        -0.020532      0.361000     -0.001487
      4.93500      4.93500      4.93500        -0.666820      0.163625     -0.246137
      0.00000      0.00000      0.00000         0.055387      0.532580      0.004617
      4.93500      4.93500      1.64500        -0.714526      0.216081      0.255616
      4.93500      1.64500      4.93500        -0.644217     -0.210420     -0.225414
      3.29000      0.00000      3.29000        -0.019791      0.432761     -0.010323
      3.29000      0.00000      0.00000         0.002466      0.475737      0.005999
      1.64500      1.64500      1.64500         0.686448     -0.225785      0.230693
      3.29000      3.29000      3.29000        -0.002062     -0.458878     -0.005742
 -----------------------------------------------------------------------------------
    total drift:                                0.000005     -0.000007      0.000003


--------------------------------------------------------------------------------------------------------



  FREE ENERGIE OF THE ION-ELECTRON SYSTEM (eV)
  ---------------------------------------------------
  free  energy   TOTEN  =      -184.00173543 eV

  energy  without entropy=     -183.99924196  energy(sigma->0) =     -184.00048869
 


--------------------------------------------------------------------------------------------------------


    POTLOK:  cpu time      0.0066: real time      0.0106


--------------------------------------------------------------------------------------------------------


     LOOP+:  cpu time     93.3338: real time     93.7718
    4ORBIT:  cpu time      0.0000: real time      0.0000

 total amount of memory used by VASP MPI-rank0    48253. kBytes
=======================================================================

   base      :      30000. kBytes
   nonl-proj :       8332. kBytes
   fftplans  :        456. kBytes
   grid      :        919. kBytes
   one-center:         31. kBytes
   wavefun   :       8515. kBytes
 
  
  
 General timing and accounting informations for this job:
 ========================================================
  
                  Total CPU time used (sec):       96.732
                            User time (sec):       95.566
                          System time (sec):        1.167
                         Elapsed time (sec):       98.872
  
                   Maximum memory used (kb):       90880.
                   Average memory used (kb):          N/A
  
                          Minor page faults:        10457
                          Major page faults:            0
                 Voluntary context switches:          221
