 vasp.6.3.1 04May22 (build Jul 26 2022 04:02:40) complex                        
  
 executed on             LinuxIFC date 2023.11.30  01:44:15
 running on   48 total cores
 distrk:  each k-point on   48 cores,    1 groups
 distr:  one band on NCORE=  12 cores,    4 groups


--------------------------------------------------------------------------------------------------------


 INCAR:
   ISTART = 0
   NWRITE = 2
   PREC = Accurate
   ENCUT = 250
   GGA = PE
   NSW = 0
   ISIF = 2
   ISYM = 2
   NBLOCK = 1
   KBLOCK = 1
   IBRION = -1
   NELM = 80
   EDIFF = 1E-08
   EDIFFG = -0.01
   ALGO = Normal
   LDIAG = .TRUE.
   LREAL = .FALSE.
   ISMEAR = 0
   SIGMA = 0.02
   ICHARG = 2
   LPLANE = .TRUE.
   NPAR = 4
   LSCALU = .FALSE.
   NSIM = 4
   LWAVE = .FALSE.
   LCHARG = .FALSE.
   ICORELEVEL = 1

 POTCAR:    PAW_PBE Nb_sv 25May2007               
 POTCAR:    PAW_PBE Mo_sv 02Feb2006               
 POTCAR:    PAW_PBE Ta_pv 07Sep2000               
 POTCAR:    PAW_PBE W_sv 04Sep2015                
 POTCAR:    PAW_PBE Nb_sv 25May2007               
   SHA256 =  0e8fc07c9fcd1164cf2ade22d0399fd28f85e91cd773dfa6cf24839a48c95e24 Nb_sv/POTCAR          
   COPYR  = (c) Copyright 25May2007 Georg Kresse                                                    
   COPYR  = This file is part of the software VASP. Any use, copying, and all other rights are regul
   COPYR  = If you do not have a valid VASP license, you may not use, copy or distribute this file. 
   VRHFIN =Nb: 4p5s4d                                                                               
   LEXCH  = PE                                                                                      
   EATOM  =  1555.1913 eV,  114.3033 Ry                                                             
                                                                                                    
   TITEL  = PAW_PBE Nb_sv 25May2007                                                                 
   LULTRA =        F    use ultrasoft PP ?                                                          
   IUNSCR =        1    unscreen: 0-lin 1-nonlin 2-no                                               
   RPACOR =    1.800    partial core radius                                                         
   POMASS =   92.910; ZVAL   =   13.000    mass and valenz                                          
   RCORE  =    2.400    outmost cutoff radius                                                       
   RWIGS  =    2.400; RWIGS  =    1.270    wigner-seitz radius (au A)                               
   ENMAX  =  293.235; ENMIN  =  219.927 eV                                                          
   ICORE  =        3    local potential                                                             
   LCOR   =        T    correct aug charges                                                         
   LPAW   =        T    paw PP                                                                      
   EAUG   =  455.659                                                                                
   DEXC   =    0.000                                                                                
   RMAX   =    2.456    core radius for proj-oper                                                   
   RAUG   =    1.300    factor for augmentation sphere                                              
   RDEP   =    2.451    radius for radial grids                                                     
   RDEPT  =    1.956    core radius for aug-charge                                                  
                                                                                                    
   Atomic configuration                                                                             
   11 entries                                                                                       
     n  l   j            E        occ.                                                              
     1  0  0.50    -18805.2457   2.0000                                                             
     2  0  0.50     -2630.2869   2.0000                                                             
     2  1  1.50     -2348.4046   6.0000                                                             
     3  0  0.50      -438.8757   2.0000                                                             
     3  1  1.50      -346.7588   6.0000                                                             
     3  2  2.50      -196.2560  10.0000                                                             
     4  0  0.50       -58.3859   2.0000                                                             
     5  0  0.50        -3.9816   1.0000                                                             
     4  1  1.50       -34.5141   6.0000                                                             
     4  2  2.50        -3.0408   4.0000                                                             
     4  3  2.50        -1.3606   0.0000                                                             
   Description                                                                                      
     l       E           TYP  RCUT    TYP  RCUT                                                     
     0    -58.3859094     23  2.200                                                                 
     0     -3.9816262     23  2.200                                                                 
     1    -34.5140738     23  2.200                                                                 
     1     13.6058260     23  2.200                                                                 
     2     -3.0408010     23  2.200                                                                 
     2     -0.1283038     23  2.200                                                                 
     3     -1.3605826     23  2.400                                                                 
  local pseudopotential read in
  partial core-charges read in
  partial kinetic energy density read in
  atomic valenz-charges read in
  non local Contribution for L=           0  read in
    real space projection operators read in
  non local Contribution for L=           0  read in
    real space projection operators read in
  non local Contribution for L=           1  read in
    real space projection operators read in
  non local Contribution for L=           1  read in
    real space projection operators read in
  non local Contribution for L=           2  read in
    real space projection operators read in
  non local Contribution for L=           2  read in
    real space projection operators read in
    PAW grid and wavefunctions read in
 
   number of l-projection  operators is LMAX  =           6
   number of lm-projection operators is LMMAX =          18
 
 POTCAR:    PAW_PBE Mo_sv 02Feb2006               
   SHA256 =  2731df97e41766cc617548c5a8267718fdef1f509ac6bafa01e745abea2bdfaa Mo_sv/POTCAR          
   COPYR  = (c) Copyright 02Feb2006 Georg Kresse                                                    
   COPYR  = This file is part of the software VASP. Any use, copying, and all other rights are regul
   COPYR  = If you do not have a valid VASP license, you may not use, copy or distribute this file. 
   VRHFIN =Mo: 4p5s4d                                                                               
   LEXCH  = PE                                                                                      
   EATOM  =  1862.2866 eV,  136.8742 Ry                                                             
                                                                                                    
   TITEL  = PAW_PBE Mo_sv 02Feb2006                                                                 
   LULTRA =        F    use ultrasoft PP ?                                                          
   IUNSCR =        1    unscreen: 0-lin 1-nonlin 2-no                                               
   RPACOR =    2.200    partial core radius                                                         
   POMASS =   95.940; ZVAL   =   14.000    mass and valenz                                          
   RCORE  =    2.500    outmost cutoff radius                                                       
   RWIGS  =    2.750; RWIGS  =    1.455    wigner-seitz radius (au A)                               
   ENMAX  =  242.676; ENMIN  =  182.007 eV                                                          
   ICORE  =        3    local potential                                                             
   LCOR   =        T    correct aug charges                                                         
   LPAW   =        T    paw PP                                                                      
   EAUG   =  446.014                                                                                
   DEXC   =    0.000                                                                                
   RMAX   =    2.563    core radius for proj-oper                                                   
   RAUG   =    1.300    factor for augmentation sphere                                              
   RDEP   =    2.641    radius for radial grids                                                     
   RDEPT  =    2.031    core radius for aug-charge                                                  
                                                                                                    
   Atomic configuration                                                                             
   11 entries                                                                                       
     n  l   j            E        occ.                                                              
     1  0  0.50    -19819.0341   2.0000                                                             
     2  0  0.50     -2799.0127   2.0000                                                             
     2  1  1.50     -2502.0276   6.0000                                                             
     3  0  0.50      -476.4449   2.0000                                                             
     3  1  1.50      -379.1496   6.0000                                                             
     3  2  2.50      -220.9367  10.0000                                                             
     4  0  0.50       -64.3378   2.0000                                                             
     5  0  0.50        -4.0862   1.0000                                                             
     4  1  1.50       -38.4773   6.0000                                                             
     4  2  2.50        -3.7535   5.0000                                                             
     4  3  2.50        -1.3606   0.0000                                                             
   Description                                                                                      
     l       E           TYP  RCUT    TYP  RCUT                                                     
     0    -64.3377829     23  2.100                                                                 
     0     -4.0861640     23  2.400                                                                 
     1    -38.4772993     23  2.100                                                                 
     1     13.6058260     23  2.100                                                                 
     2     -3.7534941     23  2.400                                                                 
     2     -5.1140767     23  2.400                                                                 
     3     -4.0817478     23  2.500                                                                 
  local pseudopotential read in
  partial core-charges read in
  partial kinetic energy density read in
  atomic valenz-charges read in
  non local Contribution for L=           0  read in
    real space projection operators read in
  non local Contribution for L=           0  read in
    real space projection operators read in
  non local Contribution for L=           1  read in
    real space projection operators read in
  non local Contribution for L=           1  read in
    real space projection operators read in
  non local Contribution for L=           2  read in
    real space projection operators read in
  non local Contribution for L=           2  read in
    real space projection operators read in
    PAW grid and wavefunctions read in
 
   number of l-projection  operators is LMAX  =           6
   number of lm-projection operators is LMMAX =          18
 
 POTCAR:    PAW_PBE Ta_pv 07Sep2000               
   SHA256 =  00d0a14a36c127416459414afb8617d9754996fffa60a2465888e660b20a452f Ta_pv/POTCAR          
   COPYR  = (c) Copyright 07Sep2000 Georg Kresse                                                    
   COPYR  = This file is part of the software VASP. Any use, copying, and all other rights are regul
   COPYR  = If you do not have a valid VASP license, you may not use, copy or distribute this file. 
   VRHFIN =Ta:  5p6s5d                                                                              
   LEXCH  = PE                                                                                      
   EATOM  =  1047.1984 eV,   76.9669 Ry                                                             
                                                                                                    
   TITEL  = PAW_PBE Ta_pv 07Sep2000                                                                 
   LULTRA =        F    use ultrasoft PP ?                                                          
   IUNSCR =        1    unscreen: 0-lin 1-nonlin 2-no                                               
   RPACOR =    2.330    partial core radius                                                         
   POMASS =  180.948; ZVAL   =   11.000    mass and valenz                                          
   RCORE  =    2.500    outmost cutoff radius                                                       
   RWIGS  =    2.840; RWIGS  =    1.503    wigner-seitz radius (au A)                               
   ENMAX  =  223.667; ENMIN  =  167.750 eV                                                          
   RCLOC  =    2.205    cutoff for local pot                                                        
   LCOR   =        T    correct aug charges                                                         
   LPAW   =        T    paw PP                                                                      
   EAUG   =  377.421                                                                                
   DEXC   =    0.000                                                                                
   RMAX   =    2.551    core radius for proj-oper                                                   
   RAUG   =    1.300    factor for augmentation sphere                                              
   RDEP   =    2.526    radius for radial grids                                                     
   RDEPT  =    2.132    core radius for aug-charge                                                  
                                                                                                    
   Atomic configuration                                                                             
   15 entries                                                                                       
     n  l   j            E        occ.                                                              
     1  0  0.50    -67341.2801   2.0000                                                             
     2  0  0.50    -11566.9369   2.0000                                                             
     2  1  1.50    -10134.1175   6.0000                                                             
     3  0  0.50     -2648.5614   2.0000                                                             
     3  1  1.50     -2222.6006   6.0000                                                             
     3  2  2.50     -1726.3114  10.0000                                                             
     4  0  0.50      -538.6957   2.0000                                                             
     4  1  1.50      -399.0125   6.0000                                                             
     4  2  2.50      -220.3955  10.0000                                                             
     4  3  3.50       -23.0371  14.0000                                                             
     5  0  0.50       -71.2900   2.0000                                                             
     5  1  1.50       -37.8224   6.0000                                                             
     5  2  2.50        -2.6455   4.0000                                                             
     6  0  0.50        -4.9623   1.0000                                                             
     5  3  2.50        -1.3606   0.0000                                                             
   Description                                                                                      
     l       E           TYP  RCUT    TYP  RCUT                                                     
     1    -37.8224449     23  2.500                                                                 
     1      1.3605826     23  2.500                                                                 
     2     -2.6454718     23  2.500                                                                 
     2     -0.6258570     23  2.500                                                                 
     0     -4.9622674     23  2.500                                                                 
     0      4.7531427     23  2.500                                                                 
  local pseudopotential read in
  partial core-charges read in
  partial kinetic energy density read in
  atomic valenz-charges read in
  non local Contribution for L=           1  read in
    real space projection operators read in
  non local Contribution for L=           1  read in
    real space projection operators read in
  non local Contribution for L=           2  read in
    real space projection operators read in
  non local Contribution for L=           2  read in
    real space projection operators read in
  non local Contribution for L=           0  read in
    real space projection operators read in
  non local Contribution for L=           0  read in
    real space projection operators read in
    PAW grid and wavefunctions read in
 
   number of l-projection  operators is LMAX  =           6
   number of lm-projection operators is LMMAX =          18
 
 POTCAR:    PAW_PBE W_sv 04Sep2015                
   SHA256 =  931c2d770f65867ef30f3db3421922900fc0890ebac5c3e12f63b6a2064023d7 W_sv/POTCAR           
   COPYR  = (c) Copyright 04Sep2015 Georg Kresse                                                    
   COPYR  = This file is part of the software VASP. Any use, copying, and all other rights are regul
   COPYR  = If you do not have a valid VASP license, you may not use, copy or distribute this file. 
   VRHFIN =W : 5p6s5d                                                                               
   LEXCH  = PE                                                                                      
   EATOM  =  1865.5791 eV,  137.1162 Ry                                                             
                                                                                                    
   TITEL  = PAW_PBE W_sv 04Sep2015                                                                  
   LULTRA =        F    use ultrasoft PP ?                                                          
   IUNSCR =        1    unscreen: 0-lin 1-nonlin 2-no                                               
   RPACOR =    2.330    partial core radius                                                         
   POMASS =  183.850; ZVAL   =   14.000    mass and valenz                                          
   RCORE  =    2.500    outmost cutoff radius                                                       
   RWIGS  =    2.750; RWIGS  =    1.455    wigner-seitz radius (au A)                               
   ENMAX  =  223.057; ENMIN  =  167.293 eV                                                          
   ICORE  =        3    local potential                                                             
   LCOR   =        T    correct aug charges                                                         
   LPAW   =        T    paw PP                                                                      
   EAUG   =  373.438                                                                                
   DEXC   =    0.000                                                                                
   RMAX   =    2.565    core radius for proj-oper                                                   
   RAUG   =    1.300    factor for augmentation sphere                                              
   RDEP   =    2.539    radius for radial grids                                                     
   RDEPT  =    2.126    core radius for aug-charge                                                  
                                                                                                    
   Atomic configuration                                                                             
   15 entries                                                                                       
     n  l   j            E        occ.                                                              
     1  0  0.50    -69465.5834   2.0000                                                             
     2  0  0.50    -11986.2640   2.0000                                                             
     2  1  1.50    -10479.8613   6.0000                                                             
     3  0  0.50     -2759.0756   2.0000                                                             
     3  1  1.50     -2313.1855   6.0000                                                             
     3  2  2.50     -1801.1183  10.0000                                                             
     4  0  0.50      -567.6789   2.0000                                                             
     4  1  1.50      -421.4692   6.0000                                                             
     4  2  2.50      -236.3471  10.0000                                                             
     4  3  3.50       -31.2665  14.0000                                                             
     5  0  0.50       -77.1084   2.0000                                                             
     6  0  0.50        -5.1438   1.0000                                                             
     5  1  1.50       -41.3856   6.0000                                                             
     5  2  2.50        -3.3185   5.0000                                                             
     5  3  2.50        -1.3606   0.0000                                                             
   Description                                                                                      
     l       E           TYP  RCUT    TYP  RCUT                                                     
     0    -77.1084470     23  2.100                                                                 
     0     -5.1437956     23  2.300                                                                 
     1    -41.3855615     23  2.500                                                                 
     1     -2.7211652     23  2.500                                                                 
     2     -3.3185025     23  2.500                                                                 
     2     -1.5965151     23  2.500                                                                 
     3     -1.3605826     23  2.500                                                                 
  local pseudopotential read in
  partial core-charges read in
  partial kinetic energy density read in
  kinetic energy density of atom read in
  atomic valenz-charges read in
  non local Contribution for L=           0  read in
    real space projection operators read in
  non local Contribution for L=           0  read in
    real space projection operators read in
  non local Contribution for L=           1  read in
    real space projection operators read in
  non local Contribution for L=           1  read in
    real space projection operators read in
  non local Contribution for L=           2  read in
    real space projection operators read in
  non local Contribution for L=           2  read in
    real space projection operators read in
    PAW grid and wavefunctions read in
 
   number of l-projection  operators is LMAX  =           6
   number of lm-projection operators is LMMAX =          18
 
  PAW_PBE Nb_sv 25May2007               :
 energy of atom  1       EATOM=-1555.1913
 kinetic energy error for atom=    0.2155 (will be added to EATOM!!)
  PAW_PBE Mo_sv 02Feb2006               :
 energy of atom  2       EATOM=-1862.2866
 kinetic energy error for atom=    0.1102 (will be added to EATOM!!)
  PAW_PBE Ta_pv 07Sep2000               :
 energy of atom  3       EATOM=-1047.1984
 kinetic energy error for atom=    0.0394 (will be added to EATOM!!)
  PAW_PBE W_sv 04Sep2015                :
 energy of atom  4       EATOM=-1865.5791
 kinetic energy error for atom=    0.0589 (will be added to EATOM!!)
 
 
 POSCAR: Nb-Mo-Ta-W alloy
  positions in direct lattice
  No initial velocities read in
 exchange correlation table for  LEXCH =        8
   RHO(1)=    0.500       N(1)  =     2000
   RHO(2)=  100.500       N(2)  =     4000
 


--------------------------------------------------------------------------------------------------------


 ion  position               nearest neighbor table
   1  0.250  0.250  0.750-   4 2.85   5 2.85   6 2.85   9 2.85  12 2.85  13 2.85  14 2.85  15 2.85

   2  0.750  0.750  0.750-   4 2.85   5 2.85   6 2.85   9 2.85  12 2.85  13 2.85  14 2.85  15 2.85

   3  0.250  0.750  0.250-   4 2.85   5 2.85   6 2.85   9 2.85  12 2.85  13 2.85  14 2.85  15 2.85

   4  0.000  0.000  0.000-   1 2.85   2 2.85   3 2.85   7 2.85   8 2.85  10 2.85  11 2.85  16 2.85
                            15 3.29  13 3.29  15 3.29  13 3.29
   5  0.500  0.500  0.500-   1 2.85   2 2.85   3 2.85   7 2.85   8 2.85  10 2.85  11 2.85  16 2.85
                            14 3.29  12 3.29  14 3.29  12 3.29
   6  0.500  0.500  0.000-   1 2.85   2 2.85   3 2.85   7 2.85   8 2.85  10 2.85  11 2.85  16 2.85
                            15 3.29  13 3.29  13 3.29  15 3.29
   7  0.750  0.250  0.750-   4 2.85   5 2.85   6 2.85   9 2.85  12 2.85  13 2.85  14 2.85  15 2.85
                            11 3.29  11 3.29
   8  0.250  0.750  0.750-   4 2.85   5 2.85   6 2.85   9 2.85  12 2.85  13 2.85  14 2.85  15 2.85

   9  0.000  0.000  0.500-   1 2.85   2 2.85   3 2.85   7 2.85   8 2.85  10 2.85  11 2.85  16 2.85
                            14 3.29  12 3.29  12 3.29  14 3.29
  10  0.250  0.250  0.250-   4 2.85   5 2.85   6 2.85   9 2.85  12 2.85  13 2.85  14 2.85  15 2.85
                            11 3.29  11 3.29
  11  0.750  0.250  0.250-   4 2.85   5 2.85   6 2.85   9 2.85  12 2.85  13 2.85  14 2.85  15 2.85
                             7 3.29  10 3.29  16 3.29   7 3.29  16 3.29  10 3.29
  12  0.000  0.500  0.500-   1 2.85   2 2.85   3 2.85   7 2.85   8 2.85  10 2.85  11 2.85  16 2.85
                             9 3.29  15 3.29   5 3.29  15 3.29   9 3.29   5 3.29
  13  0.500  0.000  0.000-   1 2.85   2 2.85   3 2.85   7 2.85   8 2.85  10 2.85  11 2.85  16 2.85
                             6 3.29  14 3.29   4 3.29  14 3.29   6 3.29   4 3.29
  14  0.500  0.000  0.500-   1 2.85   2 2.85   3 2.85   7 2.85   8 2.85  10 2.85  11 2.85  16 2.85
                             9 3.29  13 3.29   5 3.29  13 3.29   5 3.29   9 3.29
  15  0.000  0.500  0.000-   1 2.85   2 2.85   3 2.85   7 2.85   8 2.85  10 2.85  11 2.85  16 2.85
                             6 3.29  12 3.29   4 3.29  12 3.29   4 3.29   6 3.29
  16  0.750  0.750  0.250-   4 2.85   5 2.85   6 2.85   9 2.85  12 2.85  13 2.85  14 2.85  15 2.85
                            11 3.29  11 3.29
 
  LATTYP: Found a simple cubic cell.
 ALAT       =     6.5800000000
  
  Lattice vectors:
  
 A1 = (   6.5800000000,   0.0000000000,   0.0000000000)
 A2 = (   0.0000000000,   6.5800000000,   0.0000000000)
 A3 = (   0.0000000000,   0.0000000000,   6.5800000000)


Analysis of symmetry for initial positions (statically):
=====================================================================
 Subroutine PRICEL returns:
 Original cell was already a primitive cell.
 

 Routine SETGRP: Setting up the symmetry group for a 
 simple cubic supercell.


 Subroutine GETGRP returns: Found  1 space group operations
 (whereof  1 operations were pure point group operations)
 out of a pool of 48 trial point group operations.


The static configuration has the point symmetry C_1 .


Analysis of symmetry for dynamics (positions and initial velocities):
=====================================================================
 Subroutine PRICEL returns:
 Original cell was already a primitive cell.
 

 Routine SETGRP: Setting up the symmetry group for a 
 simple cubic supercell.


 Subroutine GETGRP returns: Found  1 space group operations
 (whereof  1 operations were pure point group operations)
 out of a pool of 48 trial point group operations.


The dynamic configuration has the point symmetry C_1 .


 Subroutine INISYM returns: Found  1 space group operations
 (whereof  1 operations are pure point group operations),
 and found     1 'primitive' translations


----------------------------------------------------------------------------------------

                                     Primitive cell                                     

  volume of cell :     284.8903

  direct lattice vectors                    reciprocal lattice vectors
     6.580000000  0.000000000  0.000000000     0.151975684  0.000000000  0.000000000
     0.000000000  6.580000000  0.000000000     0.000000000  0.151975684  0.000000000
     0.000000000  0.000000000  6.580000000     0.000000000  0.000000000  0.151975684

  length of vectors
     6.580000000  6.580000000  6.580000000     0.151975684  0.151975684  0.151975684

  position of ions in fractional coordinates (direct lattice)
     0.250000000  0.250000000  0.750000000
     0.750000000  0.750000000  0.750000000
     0.250000000  0.750000000  0.250000000
     0.000000000  0.000000000  0.000000000
     0.500000000  0.500000000  0.500000000
     0.500000000  0.500000000  0.000000000
     0.750000000  0.250000000  0.750000000
     0.250000000  0.750000000  0.750000000
     0.000000000  0.000000000  0.500000000
     0.250000000  0.250000000  0.250000000
     0.750000000  0.250000000  0.250000000
     0.000000000  0.500000000  0.500000000
     0.500000000  0.000000000  0.000000000
     0.500000000  0.000000000  0.500000000
     0.000000000  0.500000000  0.000000000
     0.750000000  0.750000000  0.250000000

  ion indices of the primitive-cell ions
   primitive index   ion index
                 1           1
                 2           2
                 3           3
                 4           4
                 5           5
                 6           6
                 7           7
                 8           8
                 9           9
                10          10
                11          11
                12          12
                13          13
                14          14
                15          15
                16          16

----------------------------------------------------------------------------------------

 
 
 KPOINTS: K-Spacing Value to Generate K-Mesh: 0.03

Automatic generation of k-mesh.
 Grid dimensions read from file:
 generate k-points for:    5    5    5

 Generating k-lattice:

  Cartesian coordinates                     Fractional coordinates (reciprocal lattice)
     0.030395137  0.000000000  0.000000000     0.200000000  0.000000000  0.000000000
     0.000000000  0.030395137  0.000000000     0.000000000  0.200000000  0.000000000
     0.000000000  0.000000000  0.030395137     0.000000000  0.000000000  0.200000000

  Length of vectors
     0.030395137  0.030395137  0.030395137

  Shift w.r.t. Gamma in fractional coordinates (k-lattice)
     0.000000000  0.000000000  0.000000000

 
 Subroutine IBZKPT returns following result:
 ===========================================
 
 Found     63 irreducible k-points:
 
 Following reciprocal coordinates:
            Coordinates               Weight
  0.000000  0.000000  0.000000      1.000000
  0.200000  0.000000  0.000000      2.000000
  0.000000  0.200000  0.000000      2.000000
  0.000000  0.000000  0.200000      2.000000
  0.400000  0.000000  0.000000      2.000000
  0.000000  0.400000  0.000000      2.000000
  0.000000  0.000000  0.400000      2.000000
  0.200000  0.200000  0.000000      2.000000
  0.000000  0.200000  0.200000      2.000000
  0.200000  0.000000  0.200000      2.000000
 -0.200000  0.200000  0.000000      2.000000
 -0.200000  0.000000  0.200000      2.000000
  0.000000 -0.200000  0.200000      2.000000
  0.400000  0.200000  0.000000      2.000000
  0.000000  0.400000  0.200000      2.000000
  0.200000  0.000000  0.400000      2.000000
 -0.200000  0.400000  0.000000      2.000000
 -0.400000  0.000000  0.200000      2.000000
  0.000000  0.200000  0.400000      2.000000
  0.000000 -0.400000  0.200000      2.000000
 -0.200000  0.000000  0.400000      2.000000
  0.400000  0.000000  0.200000      2.000000
  0.000000 -0.200000  0.400000      2.000000
  0.400000 -0.200000  0.000000      2.000000
  0.200000  0.400000  0.000000      2.000000
  0.400000  0.400000  0.000000      2.000000
  0.000000  0.400000  0.400000      2.000000
  0.400000  0.000000  0.400000      2.000000
 -0.400000  0.400000  0.000000      2.000000
 -0.400000  0.000000  0.400000      2.000000
  0.000000 -0.400000  0.400000      2.000000
  0.200000  0.200000  0.200000      2.000000
 -0.200000  0.200000  0.200000      2.000000
 -0.200000 -0.200000  0.200000      2.000000
  0.200000 -0.200000  0.200000      2.000000
  0.400000  0.200000  0.200000      2.000000
  0.200000  0.400000  0.200000      2.000000
  0.200000  0.200000  0.400000      2.000000
 -0.200000  0.400000  0.200000      2.000000
 -0.400000  0.200000  0.200000      2.000000
 -0.200000  0.200000  0.400000      2.000000
 -0.400000 -0.200000  0.200000      2.000000
 -0.200000 -0.400000  0.200000      2.000000
 -0.200000 -0.200000  0.400000      2.000000
  0.200000 -0.400000  0.200000      2.000000
  0.400000 -0.200000  0.200000      2.000000
  0.200000 -0.200000  0.400000      2.000000
  0.400000  0.400000  0.200000      2.000000
  0.200000  0.400000  0.400000      2.000000
  0.400000  0.200000  0.400000      2.000000
 -0.400000  0.400000  0.200000      2.000000
 -0.400000  0.200000  0.400000      2.000000
 -0.200000  0.400000  0.400000      2.000000
 -0.400000 -0.400000  0.200000      2.000000
 -0.200000 -0.400000  0.400000      2.000000
 -0.400000 -0.200000  0.400000      2.000000
  0.400000 -0.400000  0.200000      2.000000
  0.400000 -0.200000  0.400000      2.000000
  0.200000 -0.400000  0.400000      2.000000
  0.400000  0.400000  0.400000      2.000000
 -0.400000  0.400000  0.400000      2.000000
 -0.400000 -0.400000  0.400000      2.000000
  0.400000 -0.400000  0.400000      2.000000
 
 Following cartesian coordinates:
            Coordinates               Weight
  0.000000  0.000000  0.000000      1.000000
  0.030395  0.000000  0.000000      2.000000
  0.000000  0.030395  0.000000      2.000000
  0.000000  0.000000  0.030395      2.000000
  0.060790  0.000000  0.000000      2.000000
  0.000000  0.060790  0.000000      2.000000
  0.000000  0.000000  0.060790      2.000000
  0.030395  0.030395  0.000000      2.000000
  0.000000  0.030395  0.030395      2.000000
  0.030395  0.000000  0.030395      2.000000
 -0.030395  0.030395  0.000000      2.000000
 -0.030395  0.000000  0.030395      2.000000
  0.000000 -0.030395  0.030395      2.000000
  0.060790  0.030395  0.000000      2.000000
  0.000000  0.060790  0.030395      2.000000
  0.030395  0.000000  0.060790      2.000000
 -0.030395  0.060790  0.000000      2.000000
 -0.060790  0.000000  0.030395      2.000000
  0.000000  0.030395  0.060790      2.000000
  0.000000 -0.060790  0.030395      2.000000
 -0.030395  0.000000  0.060790      2.000000
  0.060790  0.000000  0.030395      2.000000
  0.000000 -0.030395  0.060790      2.000000
  0.060790 -0.030395  0.000000      2.000000
  0.030395  0.060790  0.000000      2.000000
  0.060790  0.060790  0.000000      2.000000
  0.000000  0.060790  0.060790      2.000000
  0.060790  0.000000  0.060790      2.000000
 -0.060790  0.060790  0.000000      2.000000
 -0.060790  0.000000  0.060790      2.000000
  0.000000 -0.060790  0.060790      2.000000
  0.030395  0.030395  0.030395      2.000000
 -0.030395  0.030395  0.030395      2.000000
 -0.030395 -0.030395  0.030395      2.000000
  0.030395 -0.030395  0.030395      2.000000
  0.060790  0.030395  0.030395      2.000000
  0.030395  0.060790  0.030395      2.000000
  0.030395  0.030395  0.060790      2.000000
 -0.030395  0.060790  0.030395      2.000000
 -0.060790  0.030395  0.030395      2.000000
 -0.030395  0.030395  0.060790      2.000000
 -0.060790 -0.030395  0.030395      2.000000
 -0.030395 -0.060790  0.030395      2.000000
 -0.030395 -0.030395  0.060790      2.000000
  0.030395 -0.060790  0.030395      2.000000
  0.060790 -0.030395  0.030395      2.000000
  0.030395 -0.030395  0.060790      2.000000
  0.060790  0.060790  0.030395      2.000000
  0.030395  0.060790  0.060790      2.000000
  0.060790  0.030395  0.060790      2.000000
 -0.060790  0.060790  0.030395      2.000000
 -0.060790  0.030395  0.060790      2.000000
 -0.030395  0.060790  0.060790      2.000000
 -0.060790 -0.060790  0.030395      2.000000
 -0.030395 -0.060790  0.060790      2.000000
 -0.060790 -0.030395  0.060790      2.000000
  0.060790 -0.060790  0.030395      2.000000
  0.060790 -0.030395  0.060790      2.000000
  0.030395 -0.060790  0.060790      2.000000
  0.060790  0.060790  0.060790      2.000000
 -0.060790  0.060790  0.060790      2.000000
 -0.060790 -0.060790  0.060790      2.000000
  0.060790 -0.060790  0.060790      2.000000
 


--------------------------------------------------------------------------------------------------------




 Dimension of arrays:
   k-points           NKPTS =     63   k-points in BZ     NKDIM =     63   number of bands    NBANDS=    124
   number of dos      NEDOS =    301   number of ions     NIONS =     16
   non local maximal  LDIM  =      6   non local SUM 2l+1 LMDIM =     18
   total plane-waves  NPLWV =  46656
   max r-space proj   IRMAX =      1   max aug-charges    IRDMAX=   9546
   dimension x,y,z NGX =    36 NGY =   36 NGZ =   36
   dimension x,y,z NGXF=    72 NGYF=   72 NGZF=   72
   support grid    NGXF=    72 NGYF=   72 NGZF=   72
   ions per type =               6   5   4   1
   NGX,Y,Z   is equivalent  to a cutoff of   9.10,  9.10,  9.10 a.u.
   NGXF,Y,Z  is equivalent  to a cutoff of  18.19, 18.19, 18.19 a.u.

 SYSTEM =  unknown system                          
 POSCAR =  Nb-Mo-Ta-W alloy                        

 Startparameter for this run:
   NWRITE =      2    write-flag & timer
   PREC   = accura    normal or accurate (medium, high low for compatibility)
   ISTART =      0    job   : 0-new  1-cont  2-samecut
   ICHARG =      2    charge: 1-file 2-atom 10-const
   ISPIN  =      1    spin polarized calculation?
   LNONCOLLINEAR =      F non collinear calculations
   LSORBIT =      F    spin-orbit coupling
   INIWAV =      1    electr: 0-lowe 1-rand  2-diag
   LASPH  =      F    aspherical Exc in radial PAW
 Electronic Relaxation 1
   ENCUT  =  250.0 eV  18.37 Ry    4.29 a.u.   8.48  8.48  8.48*2*pi/ulx,y,z
   ENINI  =  250.0     initial cutoff
   ENAUG  =  455.7 eV  augmentation charge cutoff
   NELM   =     80;   NELMIN=  2; NELMDL= -5     # of ELM steps 
   EDIFF  = 0.1E-07   stopping-criterion for ELM
   LREAL  =      F    real-space projection
   NLSPLINE    = F    spline interpolate recip. space projectors
   LCOMPAT=      F    compatible to vasp.4.4
   GGA_COMPAT  = T    GGA compatible to vasp.4.4-vasp.4.6
   LMAXPAW     = -100 max onsite density
   LMAXMIX     =    2 max onsite mixed and CHGCAR
   VOSKOWN=      0    Vosko Wilk Nusair interpolation
   ROPT   =    0.00000   0.00000   0.00000   0.00000
 Ionic relaxation
   EDIFFG = -.1E-01   stopping-criterion for IOM
   NSW    =      0    number of steps for IOM
   NBLOCK =      1;   KBLOCK =      1    inner block; outer block 
   IBRION =     -1    ionic relax: 0-MD 1-quasi-New 2-CG
   NFREE  =      0    steps in history (QN), initial steepest desc. (CG)
   ISIF   =      2    stress and relaxation
   IWAVPR =     10    prediction:  0-non 1-charg 2-wave 3-comb
   ISYM   =      2    0-nonsym 1-usesym 2-fastsym
   LCORR  =      T    Harris-Foulkes like correction to forces

   POTIM  = 0.5000    time-step for ionic-motion
   TEIN   =    0.0    initial temperature
   TEBEG  =    0.0;   TEEND  =   0.0 temperature during run
   SMASS  =  -3.00    Nose mass-parameter (am)
   estimated Nose-frequenzy (Omega)   =  0.10E-29 period in steps = 0.13E+47 mass=  -0.989E-27a.u.
   SCALEE = 1.0000    scale energy and forces
   NPACO  =    256;   APACO  = 10.0  distance and # of slots for P.C.
   PSTRESS=    0.0 pullay stress

  Mass of Ions in am
   POMASS =  92.91 95.94180.95183.85
  Ionic Valenz
   ZVAL   =  13.00 14.00 11.00 14.00
  Atomic Wigner-Seitz radii
   RWIGS  =  -1.00 -1.00 -1.00 -1.00
  virtual crystal weights 
   VCA    =   1.00  1.00  1.00  1.00
   NELECT =     206.0000    total number of electrons
   NUPDOWN=      -1.0000    fix difference up-down

 DOS related values:
   EMIN   =  10.00;   EMAX   =-10.00  energy-range for DOS
   EFERMI =   0.00
   ISMEAR =     0;   SIGMA  =   0.02  broadening in eV -4-tet -1-fermi 0-gaus

 Electronic relaxation 2 (details)
   IALGO  =     38    algorithm
   LDIAG  =      T    sub-space diagonalisation (order eigenvalues)
   LSUBROT=      F    optimize rotation matrix (better conditioning)
   TURBO    =      0    0=normal 1=particle mesh
   IRESTART =      0    0=no restart 2=restart with 2 vectors
   NREBOOT  =      0    no. of reboots
   NMIN     =      0    reboot dimension
   EREF     =   0.00    reference energy to select bands
   IMIX   =      4    mixing-type and parameters
     AMIX     =   0.40;   BMIX     =  1.00
     AMIX_MAG =   1.60;   BMIX_MAG =  1.00
     AMIN     =   0.10
     WC   =   100.;   INIMIX=   1;  MIXPRE=   1;  MAXMIX= -45

 Intra band minimization:
   WEIMIN = 0.0000     energy-eigenvalue tresh-hold
   EBREAK =  0.20E-10  absolut break condition
   DEPER  =   0.30     relativ break condition  

   TIME   =   0.40     timestep for ELM

  volume/ion in A,a.u.               =      17.81       120.16
  Fermi-wavevector in a.u.,A,eV,Ry     =   1.469393  2.776750 29.376560  2.159116
  Thomas-Fermi vector in A             =   2.584776
 
 Write flags
   LWAVE        =      F    write WAVECAR
   LDOWNSAMPLE  =      F    k-point downsampling of WAVECAR
   LCHARG       =      F    write CHGCAR
   LVTOT        =      F    write LOCPOT, total local potential
   LVHAR        =      F    write LOCPOT, Hartree potential only
   LELF         =      F    write electronic localiz. function (ELF)
   LORBIT       =      0    0 simple, 1 ext, 2 COOP (PROOUT), +10 PAW based schemes


 Dipole corrections
   LMONO  =      F    monopole corrections only (constant potential shift)
   LDIPOL =      F    correct potential (dipole corrections)
   IDIPOL =      0    1-x, 2-y, 3-z, 4-all directions 
   EPSILON=  1.0000000 bulk dielectric constant

 Core level calculations are selected ICORELEVEL =  1
 Exchange correlation treatment:
   GGA     =    PE    GGA type
   LEXCH   =     8    internal setting for exchange type
   LIBXC   =     F    Libxc                    
   VOSKOWN =     0    Vosko Wilk Nusair interpolation
   LHFCALC =     F    Hartree Fock is set to
   LHFONE  =     F    Hartree Fock one center treatment
   AEXX    =    0.0000 exact exchange contribution

 Linear response parameters
   LEPSILON=     F    determine dielectric tensor
   LRPA    =     F    only Hartree local field effects (RPA)
   LNABLA  =     F    use nabla operator in PAW spheres
   LVEL    =     F    velocity operator in full k-point grid
   CSHIFT  =0.1000    complex shift for real part using Kramers Kronig
   OMEGAMAX=  -1.0    maximum frequency
   DEG_THRESHOLD= 0.2000000E-02 threshold for treating states as degnerate
   RTIME   =   -0.100 relaxation time in fs
  (WPLASMAI=    0.000 imaginary part of plasma frequency in eV, 0.658/RTIME)
   DFIELD  = 0.0000000 0.0000000 0.0000000 field for delta impulse in time
 
  Optional k-point grid parameters
   LKPOINTS_OPT  =     F    use optional k-point grid
   KPOINTS_OPT_MODE=     1    mode for optional k-point grid
 
 Orbital magnetization related:
   ORBITALMAG=     F  switch on orbital magnetization
   LCHIMAG   =     F  perturbation theory with respect to B field
   DQ        =  0.001000  dq finite difference perturbation B field
   LLRAUG    =     F  two centre corrections for induced B field



--------------------------------------------------------------------------------------------------------


 Static calculation
 charge density and potential will be updated during run
 non-spin polarized calculation
 Variant of blocked Davidson
 Davidson routine will perform the subspace rotation
 perform sub-space diagonalisation
    after iterative eigenvector-optimisation
 modified Broyden-mixing scheme, WC =      100.0
 initial mixing is a Kerker type mixing with AMIX =  0.4000 and BMIX =      1.0000
 Hartree-type preconditioning will be used
 using additional bands           21
 reciprocal scheme for non local part
 use partial core corrections
 calculate Harris-corrections to forces 
   (improved forces if not selfconsistent)
 use gradient corrections 
 use of overlap-Matrix (Vanderbilt PP)
 Gauss-broadening in eV      SIGMA  =   0.02


--------------------------------------------------------------------------------------------------------


  energy-cutoff  :      250.00
  volume of cell :      284.89
      direct lattice vectors                 reciprocal lattice vectors
     6.580000000  0.000000000  0.000000000     0.151975684  0.000000000  0.000000000
     0.000000000  6.580000000  0.000000000     0.000000000  0.151975684  0.000000000
     0.000000000  0.000000000  6.580000000     0.000000000  0.000000000  0.151975684

  length of vectors
     6.580000000  6.580000000  6.580000000     0.151975684  0.151975684  0.151975684


 
 k-points in units of 2pi/SCALE and weight: K-Spacing Value to Generate K-Mesh: 0.03
   0.00000000  0.00000000  0.00000000       0.008
   0.03039514  0.00000000  0.00000000       0.016
   0.00000000  0.03039514  0.00000000       0.016
   0.00000000  0.00000000  0.03039514       0.016
   0.06079027  0.00000000  0.00000000       0.016
   0.00000000  0.06079027  0.00000000       0.016
   0.00000000  0.00000000  0.06079027       0.016
   0.03039514  0.03039514  0.00000000       0.016
   0.00000000  0.03039514  0.03039514       0.016
   0.03039514  0.00000000  0.03039514       0.016
  -0.03039514  0.03039514  0.00000000       0.016
  -0.03039514  0.00000000  0.03039514       0.016
   0.00000000 -0.03039514  0.03039514       0.016
   0.06079027  0.03039514  0.00000000       0.016
   0.00000000  0.06079027  0.03039514       0.016
   0.03039514  0.00000000  0.06079027       0.016
  -0.03039514  0.06079027  0.00000000       0.016
  -0.06079027  0.00000000  0.03039514       0.016
   0.00000000  0.03039514  0.06079027       0.016
   0.00000000 -0.06079027  0.03039514       0.016
  -0.03039514  0.00000000  0.06079027       0.016
   0.06079027  0.00000000  0.03039514       0.016
   0.00000000 -0.03039514  0.06079027       0.016
   0.06079027 -0.03039514  0.00000000       0.016
   0.03039514  0.06079027  0.00000000       0.016
   0.06079027  0.06079027  0.00000000       0.016
   0.00000000  0.06079027  0.06079027       0.016
   0.06079027  0.00000000  0.06079027       0.016
  -0.06079027  0.06079027  0.00000000       0.016
  -0.06079027  0.00000000  0.06079027       0.016
   0.00000000 -0.06079027  0.06079027       0.016
   0.03039514  0.03039514  0.03039514       0.016
  -0.03039514  0.03039514  0.03039514       0.016
  -0.03039514 -0.03039514  0.03039514       0.016
   0.03039514 -0.03039514  0.03039514       0.016
   0.06079027  0.03039514  0.03039514       0.016
   0.03039514  0.06079027  0.03039514       0.016
   0.03039514  0.03039514  0.06079027       0.016
  -0.03039514  0.06079027  0.03039514       0.016
  -0.06079027  0.03039514  0.03039514       0.016
  -0.03039514  0.03039514  0.06079027       0.016
  -0.06079027 -0.03039514  0.03039514       0.016
  -0.03039514 -0.06079027  0.03039514       0.016
  -0.03039514 -0.03039514  0.06079027       0.016
   0.03039514 -0.06079027  0.03039514       0.016
   0.06079027 -0.03039514  0.03039514       0.016
   0.03039514 -0.03039514  0.06079027       0.016
   0.06079027  0.06079027  0.03039514       0.016
   0.03039514  0.06079027  0.06079027       0.016
   0.06079027  0.03039514  0.06079027       0.016
  -0.06079027  0.06079027  0.03039514       0.016
  -0.06079027  0.03039514  0.06079027       0.016
  -0.03039514  0.06079027  0.06079027       0.016
  -0.06079027 -0.06079027  0.03039514       0.016
  -0.03039514 -0.06079027  0.06079027       0.016
  -0.06079027 -0.03039514  0.06079027       0.016
   0.06079027 -0.06079027  0.03039514       0.016
   0.06079027 -0.03039514  0.06079027       0.016
   0.03039514 -0.06079027  0.06079027       0.016
   0.06079027  0.06079027  0.06079027       0.016
  -0.06079027  0.06079027  0.06079027       0.016
  -0.06079027 -0.06079027  0.06079027       0.016
   0.06079027 -0.06079027  0.06079027       0.016
 
 k-points in reciprocal lattice and weights: K-Spacing Value to Generate K-Mesh: 0.03
   0.00000000  0.00000000  0.00000000       0.008
   0.20000000  0.00000000  0.00000000       0.016
   0.00000000  0.20000000  0.00000000       0.016
   0.00000000  0.00000000  0.20000000       0.016
   0.40000000  0.00000000  0.00000000       0.016
   0.00000000  0.40000000  0.00000000       0.016
   0.00000000  0.00000000  0.40000000       0.016
   0.20000000  0.20000000  0.00000000       0.016
   0.00000000  0.20000000  0.20000000       0.016
   0.20000000  0.00000000  0.20000000       0.016
  -0.20000000  0.20000000  0.00000000       0.016
  -0.20000000  0.00000000  0.20000000       0.016
   0.00000000 -0.20000000  0.20000000       0.016
   0.40000000  0.20000000  0.00000000       0.016
   0.00000000  0.40000000  0.20000000       0.016
   0.20000000  0.00000000  0.40000000       0.016
  -0.20000000  0.40000000  0.00000000       0.016
  -0.40000000  0.00000000  0.20000000       0.016
   0.00000000  0.20000000  0.40000000       0.016
   0.00000000 -0.40000000  0.20000000       0.016
  -0.20000000  0.00000000  0.40000000       0.016
   0.40000000  0.00000000  0.20000000       0.016
   0.00000000 -0.20000000  0.40000000       0.016
   0.40000000 -0.20000000  0.00000000       0.016
   0.20000000  0.40000000  0.00000000       0.016
   0.40000000  0.40000000  0.00000000       0.016
   0.00000000  0.40000000  0.40000000       0.016
   0.40000000  0.00000000  0.40000000       0.016
  -0.40000000  0.40000000  0.00000000       0.016
  -0.40000000  0.00000000  0.40000000       0.016
   0.00000000 -0.40000000  0.40000000       0.016
   0.20000000  0.20000000  0.20000000       0.016
  -0.20000000  0.20000000  0.20000000       0.016
  -0.20000000 -0.20000000  0.20000000       0.016
   0.20000000 -0.20000000  0.20000000       0.016
   0.40000000  0.20000000  0.20000000       0.016
   0.20000000  0.40000000  0.20000000       0.016
   0.20000000  0.20000000  0.40000000       0.016
  -0.20000000  0.40000000  0.20000000       0.016
  -0.40000000  0.20000000  0.20000000       0.016
  -0.20000000  0.20000000  0.40000000       0.016
  -0.40000000 -0.20000000  0.20000000       0.016
  -0.20000000 -0.40000000  0.20000000       0.016
  -0.20000000 -0.20000000  0.40000000       0.016
   0.20000000 -0.40000000  0.20000000       0.016
   0.40000000 -0.20000000  0.20000000       0.016
   0.20000000 -0.20000000  0.40000000       0.016
   0.40000000  0.40000000  0.20000000       0.016
   0.20000000  0.40000000  0.40000000       0.016
   0.40000000  0.20000000  0.40000000       0.016
  -0.40000000  0.40000000  0.20000000       0.016
  -0.40000000  0.20000000  0.40000000       0.016
  -0.20000000  0.40000000  0.40000000       0.016
  -0.40000000 -0.40000000  0.20000000       0.016
  -0.20000000 -0.40000000  0.40000000       0.016
  -0.40000000 -0.20000000  0.40000000       0.016
   0.40000000 -0.40000000  0.20000000       0.016
   0.40000000 -0.20000000  0.40000000       0.016
   0.20000000 -0.40000000  0.40000000       0.016
   0.40000000  0.40000000  0.40000000       0.016
  -0.40000000  0.40000000  0.40000000       0.016
  -0.40000000 -0.40000000  0.40000000       0.016
   0.40000000 -0.40000000  0.40000000       0.016
 
 position of ions in fractional coordinates (direct lattice) 
   0.25000000  0.25000000  0.75000000
   0.75000000  0.75000000  0.75000000
   0.25000000  0.75000000  0.25000000
   0.00000000  0.00000000  0.00000000
   0.50000000  0.50000000  0.50000000
   0.50000000  0.50000000  0.00000000
   0.75000000  0.25000000  0.75000000
   0.25000000  0.75000000  0.75000000
   0.00000000  0.00000000  0.50000000
   0.25000000  0.25000000  0.25000000
   0.75000000  0.25000000  0.25000000
   0.00000000  0.50000000  0.50000000
   0.50000000  0.00000000  0.00000000
   0.50000000  0.00000000  0.50000000
   0.00000000  0.50000000  0.00000000
   0.75000000  0.75000000  0.25000000
 
 position of ions in cartesian coordinates  (Angst):
   1.64500000  1.64500000  4.93500000
   4.93500000  4.93500000  4.93500000
   1.64500000  4.93500000  1.64500000
   0.00000000  0.00000000  0.00000000
   3.29000000  3.29000000  3.29000000
   3.29000000  3.29000000  0.00000000
   4.93500000  1.64500000  4.93500000
   1.64500000  4.93500000  4.93500000
   0.00000000  0.00000000  3.29000000
   1.64500000  1.64500000  1.64500000
   4.93500000  1.64500000  1.64500000
   0.00000000  3.29000000  3.29000000
   3.29000000  0.00000000  0.00000000
   3.29000000  0.00000000  3.29000000
   0.00000000  3.29000000  0.00000000
   4.93500000  4.93500000  1.64500000
 


--------------------------------------------------------------------------------------------------------


 k-point   1 :   0.0000 0.0000 0.0000  plane waves:    2517
 k-point   2 :   0.2000 0.0000 0.0000  plane waves:    2545
 k-point   3 :   0.0000 0.2000 0.0000  plane waves:    2545
 k-point   4 :   0.0000 0.0000 0.2000  plane waves:    2545
 k-point   5 :   0.4000 0.0000 0.0000  plane waves:    2569
 k-point   6 :   0.0000 0.4000 0.0000  plane waves:    2569
 k-point   7 :   0.0000 0.0000 0.4000  plane waves:    2569
 k-point   8 :   0.2000 0.2000 0.0000  plane waves:    2562
 k-point   9 :   0.0000 0.2000 0.2000  plane waves:    2562
 k-point  10 :   0.2000 0.0000 0.2000  plane waves:    2562
 k-point  11 :  -0.2000 0.2000 0.0000  plane waves:    2562
 k-point  12 :  -0.2000 0.0000 0.2000  plane waves:    2562
 k-point  13 :   0.0000-0.2000 0.2000  plane waves:    2562
 k-point  14 :   0.4000 0.2000 0.0000  plane waves:    2566
 k-point  15 :   0.0000 0.4000 0.2000  plane waves:    2566
 k-point  16 :   0.2000 0.0000 0.4000  plane waves:    2566
 k-point  17 :  -0.2000 0.4000 0.0000  plane waves:    2566
 k-point  18 :  -0.4000 0.0000 0.2000  plane waves:    2566
 k-point  19 :   0.0000 0.2000 0.4000  plane waves:    2566
 k-point  20 :   0.0000-0.4000 0.2000  plane waves:    2566
 k-point  21 :  -0.2000 0.0000 0.4000  plane waves:    2566
 k-point  22 :   0.4000 0.0000 0.2000  plane waves:    2566
 k-point  23 :   0.0000-0.2000 0.4000  plane waves:    2566
 k-point  24 :   0.4000-0.2000 0.0000  plane waves:    2566
 k-point  25 :   0.2000 0.4000 0.0000  plane waves:    2566
 k-point  26 :   0.4000 0.4000 0.0000  plane waves:    2570
 k-point  27 :   0.0000 0.4000 0.4000  plane waves:    2570
 k-point  28 :   0.4000 0.0000 0.4000  plane waves:    2570
 k-point  29 :  -0.4000 0.4000 0.0000  plane waves:    2570
 k-point  30 :  -0.4000 0.0000 0.4000  plane waves:    2570
 k-point  31 :   0.0000-0.4000 0.4000  plane waves:    2570
 k-point  32 :   0.2000 0.2000 0.2000  plane waves:    2572
 k-point  33 :  -0.2000 0.2000 0.2000  plane waves:    2572
 k-point  34 :  -0.2000-0.2000 0.2000  plane waves:    2572
 k-point  35 :   0.2000-0.2000 0.2000  plane waves:    2572
 k-point  36 :   0.4000 0.2000 0.2000  plane waves:    2546
 k-point  37 :   0.2000 0.4000 0.2000  plane waves:    2546
 k-point  38 :   0.2000 0.2000 0.4000  plane waves:    2546
 k-point  39 :  -0.2000 0.4000 0.2000  plane waves:    2546
 k-point  40 :  -0.4000 0.2000 0.2000  plane waves:    2546
 k-point  41 :  -0.2000 0.2000 0.4000  plane waves:    2546
 k-point  42 :  -0.4000-0.2000 0.2000  plane waves:    2546
 k-point  43 :  -0.2000-0.4000 0.2000  plane waves:    2546
 k-point  44 :  -0.2000-0.2000 0.4000  plane waves:    2546
 k-point  45 :   0.2000-0.4000 0.2000  plane waves:    2546
 k-point  46 :   0.4000-0.2000 0.2000  plane waves:    2546
 k-point  47 :   0.2000-0.2000 0.4000  plane waves:    2546
 k-point  48 :   0.4000 0.4000 0.2000  plane waves:    2549
 k-point  49 :   0.2000 0.4000 0.4000  plane waves:    2549
 k-point  50 :   0.4000 0.2000 0.4000  plane waves:    2549
 k-point  51 :  -0.4000 0.4000 0.2000  plane waves:    2549
 k-point  52 :  -0.4000 0.2000 0.4000  plane waves:    2549
 k-point  53 :  -0.2000 0.4000 0.4000  plane waves:    2549
 k-point  54 :  -0.4000-0.4000 0.2000  plane waves:    2549
 k-point  55 :  -0.2000-0.4000 0.4000  plane waves:    2549
 k-point  56 :  -0.4000-0.2000 0.4000  plane waves:    2549
 k-point  57 :   0.4000-0.4000 0.2000  plane waves:    2549
 k-point  58 :   0.4000-0.2000 0.4000  plane waves:    2549
 k-point  59 :   0.2000-0.4000 0.4000  plane waves:    2549
 k-point  60 :   0.4000 0.4000 0.4000  plane waves:    2533
 k-point  61 :  -0.4000 0.4000 0.4000  plane waves:    2533
 k-point  62 :  -0.4000-0.4000 0.4000  plane waves:    2533
 k-point  63 :   0.4000-0.4000 0.4000  plane waves:    2533

 maximum and minimum number of plane-waves per node :       235      194

 maximum number of plane-waves:      2572
 maximum index in each direction: 
   IXMAX=    8   IYMAX=    8   IZMAX=    8
   IXMIN=   -8   IYMIN=   -8   IZMIN=   -8


 parallel 3D FFT for wavefunctions:
    minimum data exchange during FFTs selected (reduces bandwidth)
 parallel 3D FFT for charge:
    minimum data exchange during FFTs selected (reduces bandwidth)


 total amount of memory used by VASP MPI-rank0    47987. kBytes
=======================================================================

   base      :      30000. kBytes
   nonl-proj :       8332. kBytes
   fftplans  :        456. kBytes
   grid      :        919. kBytes
   one-center:         31. kBytes
   wavefun   :       8249. kBytes
 
     INWAV:  cpu time      0.0000: real time      0.0000
 Broyden mixing: mesh for mixing (old mesh)
   NGX = 17   NGY = 17   NGZ = 17
  (NGX  = 72   NGY  = 72   NGZ  = 72)
  gives a total of   4913 points

 initial charge density was supplied:
 charge density of overlapping atoms calculated
 number of electron     206.0000000 magnetization 
 keeping initial charge density in first step


--------------------------------------------------------------------------------------------------------


 Maximum index for augmentation-charges          517 (set IRDMAX)


--------------------------------------------------------------------------------------------------------


 First call to EWALD:  gamma=   0.269
 Maximum number of real-space cells 3x 3x 3
 Maximum number of reciprocal cells 3x 3x 3

    FEWALD:  cpu time      0.0012: real time      0.0012


--------------------------------------- Iteration      1(   1)  ---------------------------------------


    POTLOK:  cpu time      0.0116: real time      0.0220
    SETDIJ:  cpu time      0.0029: real time      0.0031
     EDDAV:  cpu time      3.0016: real time      3.0144
       DOS:  cpu time      0.0051: real time      0.0051
    --------------------------------------------
      LOOP:  cpu time      3.0213: real time      3.0446

 eigenvalue-minimisations  : 16160
 total energy-change (2. order) : 0.1802743E+04  (-0.8176848E+04)
 number of electron     206.0000000 magnetization 
 augmentation part      206.0000000 magnetization 

 Free energy of the ion-electron system (eV)
  ---------------------------------------------------
  alpha Z        PSCENC =      1699.86386810
  Ewald energy   TEWEN  =    -21203.91745315
  -Hartree energ DENC   =     -3961.75065182
  -exchange      EXHF   =         0.00000000
  -V(xc)+E(xc)   XCENC  =       824.71180180
  PAW double counting   =     19639.13671168   -19343.76207438
  entropy T*S    EENTRO =        -0.00123458
  eigenvalues    EBANDS =      -546.43054789
  atomic energy  EATOM  =     24694.89259315
  Solvation  Ediel_sol  =         0.00000000
  ---------------------------------------------------
  free energy    TOTEN  =      1802.74301291 eV

  energy without entropy =     1802.74424749  energy(sigma->0) =     1802.74363020


--------------------------------------------------------------------------------------------------------




--------------------------------------- Iteration      1(   2)  ---------------------------------------


     EDDAV:  cpu time      3.0379: real time      3.0509
       DOS:  cpu time      0.0050: real time      0.0050
    --------------------------------------------
      LOOP:  cpu time      3.0429: real time      3.0559

 eigenvalue-minimisations  : 16564
 total energy-change (2. order) :-0.1828043E+04  (-0.1766991E+04)
 number of electron     206.0000000 magnetization 
 augmentation part      206.0000000 magnetization 

 Free energy of the ion-electron system (eV)
  ---------------------------------------------------
  alpha Z        PSCENC =      1699.86386810
  Ewald energy   TEWEN  =    -21203.91745315
  -Hartree energ DENC   =     -3961.75065182
  -exchange      EXHF   =         0.00000000
  -V(xc)+E(xc)   XCENC  =       824.71180180
  PAW double counting   =     19639.13671168   -19343.76207438
  entropy T*S    EENTRO =        -0.00241586
  eigenvalues    EBANDS =     -2374.47267461
  atomic energy  EATOM  =     24694.89259315
  Solvation  Ediel_sol  =         0.00000000
  ---------------------------------------------------
  free energy    TOTEN  =       -25.30029509 eV

  energy without entropy =      -25.29787922  energy(sigma->0) =      -25.29908716


--------------------------------------------------------------------------------------------------------




--------------------------------------- Iteration      1(   3)  ---------------------------------------


     EDDAV:  cpu time      4.2024: real time      4.2194
       DOS:  cpu time      0.0035: real time      0.0036
    --------------------------------------------
      LOOP:  cpu time      4.2059: real time      4.2230

 eigenvalue-minimisations  : 25344
 total energy-change (2. order) :-0.1503707E+03  (-0.1426431E+03)
 number of electron     206.0000000 magnetization 
 augmentation part      206.0000000 magnetization 

 Free energy of the ion-electron system (eV)
  ---------------------------------------------------
  alpha Z        PSCENC =      1699.86386810
  Ewald energy   TEWEN  =    -21203.91745315
  -Hartree energ DENC   =     -3961.75065182
  -exchange      EXHF   =         0.00000000
  -V(xc)+E(xc)   XCENC  =       824.71180180
  PAW double counting   =     19639.13671168   -19343.76207438
  entropy T*S    EENTRO =        -0.00321905
  eigenvalues    EBANDS =     -2524.84255229
  atomic energy  EATOM  =     24694.89259315
  Solvation  Ediel_sol  =         0.00000000
  ---------------------------------------------------
  free energy    TOTEN  =      -175.67097595 eV

  energy without entropy =     -175.66775691  energy(sigma->0) =     -175.66936643


--------------------------------------------------------------------------------------------------------




--------------------------------------- Iteration      1(   4)  ---------------------------------------


     EDDAV:  cpu time      4.1864: real time      4.2035
       DOS:  cpu time      0.0047: real time      0.0048
    --------------------------------------------
      LOOP:  cpu time      4.1912: real time      4.2082

 eigenvalue-minimisations  : 25056
 total energy-change (2. order) :-0.9891926E+01  (-0.9588695E+01)
 number of electron     206.0000000 magnetization 
 augmentation part      206.0000000 magnetization 

 Free energy of the ion-electron system (eV)
  ---------------------------------------------------
  alpha Z        PSCENC =      1699.86386810
  Ewald energy   TEWEN  =    -21203.91745315
  -Hartree energ DENC   =     -3961.75065182
  -exchange      EXHF   =         0.00000000
  -V(xc)+E(xc)   XCENC  =       824.71180180
  PAW double counting   =     19639.13671168   -19343.76207438
  entropy T*S    EENTRO =        -0.00277353
  eigenvalues    EBANDS =     -2534.73492380
  atomic energy  EATOM  =     24694.89259315
  Solvation  Ediel_sol  =         0.00000000
  ---------------------------------------------------
  free energy    TOTEN  =      -185.56290194 eV

  energy without entropy =     -185.56012842  energy(sigma->0) =     -185.56151518


--------------------------------------------------------------------------------------------------------




--------------------------------------- Iteration      1(   5)  ---------------------------------------


     EDDAV:  cpu time      3.9109: real time      3.9297
       DOS:  cpu time      0.0046: real time      0.0046
    CHARGE:  cpu time      0.0779: real time      0.0782
    MIXING:  cpu time      0.0003: real time      0.0003
    --------------------------------------------
      LOOP:  cpu time      3.9936: real time      4.0127

 eigenvalue-minimisations  : 23384
 total energy-change (2. order) :-0.5537320E+00  (-0.5487913E+00)
 number of electron     205.9999778 magnetization 
 augmentation part       35.6134962 magnetization 

 Broyden mixing:
  rms(total) = 0.47553E+01    rms(broyden)= 0.47540E+01
  rms(prec ) = 0.52868E+01
  weight for this iteration     100.00

 Free energy of the ion-electron system (eV)
  ---------------------------------------------------
  alpha Z        PSCENC =      1699.86386810
  Ewald energy   TEWEN  =    -21203.91745315
  -Hartree energ DENC   =     -3961.75065182
  -exchange      EXHF   =         0.00000000
  -V(xc)+E(xc)   XCENC  =       824.71180180
  PAW double counting   =     19639.13671168   -19343.76207438
  entropy T*S    EENTRO =        -0.00264331
  eigenvalues    EBANDS =     -2535.28878600
  atomic energy  EATOM  =     24694.89259315
  Solvation  Ediel_sol  =         0.00000000
  ---------------------------------------------------
  free energy    TOTEN  =      -186.11663392 eV

  energy without entropy =     -186.11399062  energy(sigma->0) =     -186.11531227


--------------------------------------------------------------------------------------------------------




--------------------------------------- Iteration      1(   6)  ---------------------------------------


    POTLOK:  cpu time      0.0041: real time      0.0043
    SETDIJ:  cpu time      0.0018: real time      0.0018
     EDDAV:  cpu time      3.2872: real time      3.3002
       DOS:  cpu time      0.0046: real time      0.0046
    CHARGE:  cpu time      0.0787: real time      0.0790
    MIXING:  cpu time      0.0003: real time      0.0003
    --------------------------------------------
      LOOP:  cpu time      3.3767: real time      3.3902

 eigenvalue-minimisations  : 18568
 total energy-change (2. order) : 0.7035675E+01  (-0.1942410E+01)
 number of electron     205.9999764 magnetization 
 augmentation part       37.2946042 magnetization 

 Broyden mixing:
  rms(total) = 0.18147E+01    rms(broyden)= 0.18143E+01
  rms(prec ) = 0.23234E+01
  weight for this iteration     100.00

 eigenvalues of (default mixing * dielectric matrix)
  average eigenvalue GAMMA=   1.4008
  1.4008

 Free energy of the ion-electron system (eV)
  ---------------------------------------------------
  alpha Z        PSCENC =      1699.86386810
  Ewald energy   TEWEN  =    -21203.91745315
  -Hartree energ DENC   =     -3750.25498262
  -exchange      EXHF   =         0.00000000
  -V(xc)+E(xc)   XCENC  =       813.99396879
  PAW double counting   =     22747.58806102   -22473.26778440
  entropy T*S    EENTRO =        -0.00431148
  eigenvalues    EBANDS =     -2707.97491875
  atomic energy  EATOM  =     24694.89259315
  Solvation  Ediel_sol  =         0.00000000
  ---------------------------------------------------
  free energy    TOTEN  =      -179.08095935 eV

  energy without entropy =     -179.07664787  energy(sigma->0) =     -179.07880361


--------------------------------------------------------------------------------------------------------




--------------------------------------- Iteration      1(   7)  ---------------------------------------


    POTLOK:  cpu time      0.0044: real time      0.0046
    SETDIJ:  cpu time      0.0017: real time      0.0017
     EDDAV:  cpu time      3.8075: real time      3.8231
       DOS:  cpu time      0.0048: real time      0.0048
    CHARGE:  cpu time      0.0806: real time      0.0808
    MIXING:  cpu time      0.0003: real time      0.0003
    --------------------------------------------
      LOOP:  cpu time      3.8993: real time      3.9153

 eigenvalue-minimisations  : 22392
 total energy-change (2. order) :-0.8216648E+00  (-0.1823189E+01)
 number of electron     205.9999773 magnetization 
 augmentation part       36.9647190 magnetization 

 Broyden mixing:
  rms(total) = 0.11623E+01    rms(broyden)= 0.11618E+01
  rms(prec ) = 0.27855E+01
  weight for this iteration     100.00

 eigenvalues of (default mixing * dielectric matrix)
  average eigenvalue GAMMA=   1.0657
  1.5998  0.5317

 Free energy of the ion-electron system (eV)
  ---------------------------------------------------
  alpha Z        PSCENC =      1699.86386810
  Ewald energy   TEWEN  =    -21203.91745315
  -Hartree energ DENC   =     -3692.02715355
  -exchange      EXHF   =         0.00000000
  -V(xc)+E(xc)   XCENC  =       810.56292806
  PAW double counting   =     24632.72022257   -24363.41927762
  entropy T*S    EENTRO =        -0.00511813
  eigenvalues    EBANDS =     -2758.57323354
  atomic energy  EATOM  =     24694.89259315
  Solvation  Ediel_sol  =         0.00000000
  ---------------------------------------------------
  free energy    TOTEN  =      -179.90262410 eV

  energy without entropy =     -179.89750597  energy(sigma->0) =     -179.90006504


--------------------------------------------------------------------------------------------------------




--------------------------------------- Iteration      1(   8)  ---------------------------------------


    POTLOK:  cpu time      0.0044: real time      0.0045
    SETDIJ:  cpu time      0.0017: real time      0.0018
     EDDAV:  cpu time      3.4300: real time      3.4432
       DOS:  cpu time      0.0046: real time      0.0047
    CHARGE:  cpu time      0.0813: real time      0.0815
    MIXING:  cpu time      0.0003: real time      0.0003
    --------------------------------------------
      LOOP:  cpu time      3.5224: real time      3.5360

 eigenvalue-minimisations  : 19808
 total energy-change (2. order) : 0.2689003E+01  (-0.9323414E+00)
 number of electron     205.9999770 magnetization 
 augmentation part       37.3937644 magnetization 

 Broyden mixing:
  rms(total) = 0.40846E+00    rms(broyden)= 0.40732E+00
  rms(prec ) = 0.64160E+00
  weight for this iteration     100.00

 eigenvalues of (default mixing * dielectric matrix)
  average eigenvalue GAMMA=   1.0353
  1.7128  1.0101  0.3829

 Free energy of the ion-electron system (eV)
  ---------------------------------------------------
  alpha Z        PSCENC =      1699.86386810
  Ewald energy   TEWEN  =    -21203.91745315
  -Hartree energ DENC   =     -3654.36794425
  -exchange      EXHF   =         0.00000000
  -V(xc)+E(xc)   XCENC  =       808.83296845
  PAW double counting   =     25369.47476195   -25103.44433834
  entropy T*S    EENTRO =        -0.00365341
  eigenvalues    EBANDS =     -2788.54442315
  atomic energy  EATOM  =     24694.89259315
  Solvation  Ediel_sol  =         0.00000000
  ---------------------------------------------------
  free energy    TOTEN  =      -177.21362065 eV

  energy without entropy =     -177.20996724  energy(sigma->0) =     -177.21179394


--------------------------------------------------------------------------------------------------------




--------------------------------------- Iteration      1(   9)  ---------------------------------------


    POTLOK:  cpu time      0.0044: real time      0.0045
    SETDIJ:  cpu time      0.0017: real time      0.0017
     EDDAV:  cpu time      3.7041: real time      3.7190
       DOS:  cpu time      0.0046: real time      0.0046
    CHARGE:  cpu time      0.0808: real time      0.0811
    MIXING:  cpu time      0.0003: real time      0.0003
    --------------------------------------------
      LOOP:  cpu time      3.7960: real time      3.8113

 eigenvalue-minimisations  : 21656
 total energy-change (2. order) :-0.3504548E-01  (-0.1583627E+00)
 number of electron     205.9999768 magnetization 
 augmentation part       37.4648826 magnetization 

 Broyden mixing:
  rms(total) = 0.31953E+00    rms(broyden)= 0.31943E+00
  rms(prec ) = 0.50164E+00
  weight for this iteration     100.00

 eigenvalues of (default mixing * dielectric matrix)
  average eigenvalue GAMMA=   1.1031
  2.0475  1.5091  0.5029  0.3529

 Free energy of the ion-electron system (eV)
  ---------------------------------------------------
  alpha Z        PSCENC =      1699.86386810
  Ewald energy   TEWEN  =    -21203.91745315
  -Hartree energ DENC   =     -3648.75398303
  -exchange      EXHF   =         0.00000000
  -V(xc)+E(xc)   XCENC  =       808.56947401
  PAW double counting   =     25644.60539248   -25377.61382340
  entropy T*S    EENTRO =        -0.00488453
  eigenvalues    EBANDS =     -2794.88984977
  atomic energy  EATOM  =     24694.89259315
  Solvation  Ediel_sol  =         0.00000000
  ---------------------------------------------------
  free energy    TOTEN  =      -177.24866613 eV

  energy without entropy =     -177.24378161  energy(sigma->0) =     -177.24622387


--------------------------------------------------------------------------------------------------------




--------------------------------------- Iteration      1(  10)  ---------------------------------------


    POTLOK:  cpu time      0.0042: real time      0.0044
    SETDIJ:  cpu time      0.0016: real time      0.0016
     EDDAV:  cpu time      3.4549: real time      3.4683
       DOS:  cpu time      0.0047: real time      0.0048
    CHARGE:  cpu time      0.0809: real time      0.0812
    MIXING:  cpu time      0.0003: real time      0.0003
    --------------------------------------------
      LOOP:  cpu time      3.5467: real time      3.5606

 eigenvalue-minimisations  : 20352
 total energy-change (2. order) : 0.4355362E-01  (-0.4050148E-01)
 number of electron     205.9999770 magnetization 
 augmentation part       37.3967290 magnetization 

 Broyden mixing:
  rms(total) = 0.15413E+00    rms(broyden)= 0.15406E+00
  rms(prec ) = 0.25316E+00
  weight for this iteration     100.00

 eigenvalues of (default mixing * dielectric matrix)
  average eigenvalue GAMMA=   1.1290
  2.5081  1.6228  0.7723  0.3940  0.3478

 Free energy of the ion-electron system (eV)
  ---------------------------------------------------
  alpha Z        PSCENC =      1699.86386810
  Ewald energy   TEWEN  =    -21203.91745315
  -Hartree energ DENC   =     -3650.27646586
  -exchange      EXHF   =         0.00000000
  -V(xc)+E(xc)   XCENC  =       808.60826489
  PAW double counting   =     25888.04179763   -25618.55633085
  entropy T*S    EENTRO =        -0.00482703
  eigenvalues    EBANDS =     -2795.85655941
  atomic energy  EATOM  =     24694.89259315
  Solvation  Ediel_sol  =         0.00000000
  ---------------------------------------------------
  free energy    TOTEN  =      -177.20511251 eV

  energy without entropy =     -177.20028549  energy(sigma->0) =     -177.20269900


--------------------------------------------------------------------------------------------------------




--------------------------------------- Iteration      1(  11)  ---------------------------------------


    POTLOK:  cpu time      0.0044: real time      0.0046
    SETDIJ:  cpu time      0.0017: real time      0.0017
     EDDAV:  cpu time      3.5726: real time      3.5874
       DOS:  cpu time      0.0052: real time      0.0052
    CHARGE:  cpu time      0.0800: real time      0.0802
    MIXING:  cpu time      0.0003: real time      0.0003
    --------------------------------------------
      LOOP:  cpu time      3.6641: real time      3.6794

 eigenvalue-minimisations  : 20648
 total energy-change (2. order) :-0.1763952E-02  (-0.1550939E-01)
 number of electron     205.9999770 magnetization 
 augmentation part       37.3376230 magnetization 

 Broyden mixing:
  rms(total) = 0.76267E-01    rms(broyden)= 0.76168E-01
  rms(prec ) = 0.17972E+00
  weight for this iteration     100.00

 eigenvalues of (default mixing * dielectric matrix)
  average eigenvalue GAMMA=   1.0253
  2.5305  1.6332  0.8315  0.4285  0.3928  0.3353

 Free energy of the ion-electron system (eV)
  ---------------------------------------------------
  alpha Z        PSCENC =      1699.86386810
  Ewald energy   TEWEN  =    -21203.91745315
  -Hartree energ DENC   =     -3653.25012958
  -exchange      EXHF   =         0.00000000
  -V(xc)+E(xc)   XCENC  =       808.73037820
  PAW double counting   =     26031.41548974   -25759.67765854
  entropy T*S    EENTRO =        -0.00488736
  eigenvalues    EBANDS =     -2795.25907703
  atomic energy  EATOM  =     24694.89259315
  Solvation  Ediel_sol  =         0.00000000
  ---------------------------------------------------
  free energy    TOTEN  =      -177.20687646 eV

  energy without entropy =     -177.20198910  energy(sigma->0) =     -177.20443278


--------------------------------------------------------------------------------------------------------




--------------------------------------- Iteration      1(  12)  ---------------------------------------


    POTLOK:  cpu time      0.0044: real time      0.0045
    SETDIJ:  cpu time      0.0017: real time      0.0017
     EDDAV:  cpu time      3.4487: real time      3.4622
       DOS:  cpu time      0.0055: real time      0.0055
    CHARGE:  cpu time      0.0777: real time      0.0780
    MIXING:  cpu time      0.0003: real time      0.0003
    --------------------------------------------
      LOOP:  cpu time      3.5382: real time      3.5522

 eigenvalue-minimisations  : 20432
 total energy-change (2. order) : 0.1067152E-01  (-0.4659495E-02)
 number of electron     205.9999770 magnetization 
[...]
     25     -25.0118      2.00000
     26     -25.0048      2.00000
     27     -24.9934      2.00000
     28     -24.9641      2.00000
     29     -24.8889      2.00000
     30     -24.8457      2.00000
     31     -24.3976      2.00000
     32     -24.3877      2.00000
     33     -24.3830      2.00000
     34     -24.3772      2.00000
     35     -24.3325      2.00000
     36     -24.3076      2.00000
     37     -24.2865      2.00000
     38     -24.2769      2.00000
     39     -24.2448      2.00000
     40     -24.2285      2.00000
     41     -24.2174      2.00000
     42     -24.1843      2.00000
     43     -21.3435      2.00000
     44     -21.3120      2.00000
     45     -21.2274      2.00000
     46     -21.1954      2.00000
     47     -21.1399      2.00000
     48     -21.0403      2.00000
     49     -20.9966      2.00000
     50     -20.9896      2.00000
     51     -20.9781      2.00000
     52     -20.8376      2.00000
     53     -20.8321      2.00000
     54     -20.7976      2.00000
     55     -20.7732      2.00000
     56     -20.7013      2.00000
     57     -20.6516      2.00000
     58     -20.6307      2.00000
     59     -20.5494      2.00000
     60     -20.5397      2.00000
     61       4.5405      2.00000
     62       5.1514      2.00000
     63       5.2952      2.00000
     64       5.6402      2.00000
     65       5.6734      2.00000
     66       6.0714      2.00000
     67       6.2387      2.00000
     68       6.7421      2.00000
     69       6.8974      2.00000
     70       6.9241      2.00000
     71       6.9735      2.00000
     72       6.9978      2.00000
     73       7.0735      2.00000
     74       7.1386      2.00000
     75       7.1757      2.00000
     76       7.2051      2.00000
     77       7.2216      2.00000
     78       7.2901      2.00000
     79       7.3331      2.00000
     80       7.3674      2.00000
     81       7.6665      2.00000
     82       7.6799      2.00000
     83       7.7728      2.00000
     84       7.8073      2.00000
     85       7.8587      2.00000
     86       7.8729      2.00000
     87       7.9116      2.00000
     88       7.9342      2.00000
     89       7.9754      2.00000
     90       7.9967      2.00000
     91       8.0734      2.00000
     92       8.0830      2.00000
     93       8.0953      2.00000
     94       8.1274      2.00000
     95       8.1474      2.00000
     96       8.1607      2.00000
     97       8.1673      2.00000
     98       8.1891      2.00000
     99       8.2573      2.00000
    100       8.2712      2.00000
    101       8.3617      2.00000
    102       8.3948      2.00000
    103       8.4442      2.00000
    104       8.4676      2.00000
    105       8.4687      2.00000
    106       8.5068      2.00000
    107       8.5570      2.00000
    108       8.9613      2.00000
    109      11.5024      0.00000
    110      11.5627      0.00000
    111      11.8004      0.00000
    112      11.8382      0.00000
    113      11.9373      0.00000
    114      12.0158      0.00000
    115      12.0663      0.00000
    116      12.1073      0.00000
    117      12.1744      0.00000
    118      12.1947      0.00000
    119      12.2613      0.00000
    120      12.3014      0.00000
    121      12.3520      0.00000
    122      12.4238      0.00000
    123      12.4532      0.00000
    124      12.5643      0.00000

 k-point    63 :       0.4000   -0.4000    0.4000
  band No.  band energies     occupation 
      1     -63.9100      2.00000
      2     -51.0910      2.00000
      3     -50.8704      2.00000
      4     -50.8618      2.00000
      5     -50.8556      2.00000
      6     -50.8519      2.00000
      7     -44.9263      2.00000
      8     -44.9127      2.00000
      9     -44.8977      2.00000
     10     -44.7412      2.00000
     11     -44.7345      2.00000
     12     -44.6961      2.00000
     13     -28.1622      2.00000
     14     -28.1387      2.00000
     15     -28.1311      2.00000
     16     -25.3575      2.00000
     17     -25.3000      2.00000
     18     -25.2280      2.00000
     19     -25.1286      2.00000
     20     -25.0962      2.00000
     21     -25.0932      2.00000
     22     -25.0749      2.00000
     23     -25.0526      2.00000
     24     -25.0241      2.00000
     25     -25.0202      2.00000
     26     -25.0030      2.00000
     27     -24.9967      2.00000
     28     -24.9665      2.00000
     29     -24.8893      2.00000
     30     -24.8503      2.00000
     31     -24.3991      2.00000
     32     -24.3902      2.00000
     33     -24.3800      2.00000
     34     -24.3686      2.00000
     35     -24.3249      2.00000
     36     -24.2971      2.00000
     37     -24.2935      2.00000
     38     -24.2560      2.00000
     39     -24.2447      2.00000
     40     -24.2410      2.00000
     41     -24.2274      2.00000
     42     -24.1958      2.00000
     43     -21.3316      2.00000
     44     -21.3170      2.00000
     45     -21.2355      2.00000
     46     -21.1960      2.00000
     47     -21.1380      2.00000
     48     -21.0311      2.00000
     49     -21.0012      2.00000
     50     -20.9925      2.00000
     51     -20.9810      2.00000
     52     -20.8335      2.00000
     53     -20.8307      2.00000
     54     -20.7984      2.00000
     55     -20.7817      2.00000
     56     -20.7015      2.00000
     57     -20.6463      2.00000
     58     -20.6291      2.00000
     59     -20.5576      2.00000
     60     -20.5335      2.00000
     61       4.5915      2.00000
     62       4.9695      2.00000
     63       5.3736      2.00000
     64       5.6240      2.00000
     65       5.8250      2.00000
     66       5.9996      2.00000
     67       6.2648      2.00000
     68       6.6986      2.00000
     69       6.9062      2.00000
     70       6.9267      2.00000
     71       6.9362      2.00000
     72       7.0207      2.00000
     73       7.0830      2.00000
     74       7.1392      2.00000
     75       7.1471      2.00000
     76       7.1844      2.00000
     77       7.2504      2.00000
     78       7.2862      2.00000
     79       7.3361      2.00000
     80       7.3896      2.00000
     81       7.6782      2.00000
     82       7.6832      2.00000
     83       7.7942      2.00000
     84       7.7981      2.00000
     85       7.8519      2.00000
     86       7.9025      2.00000
     87       7.9056      2.00000
     88       7.9169      2.00000
     89       7.9561      2.00000
     90       7.9875      2.00000
     91       8.0371      2.00000
     92       8.0819      2.00000
     93       8.1206      2.00000
     94       8.1384      2.00000
     95       8.1475      2.00000
     96       8.1666      2.00000
     97       8.1852      2.00000
     98       8.2007      2.00000
     99       8.2085      2.00000
    100       8.3284      2.00000
    101       8.3584      2.00000
    102       8.3850      2.00000
    103       8.4136      2.00000
    104       8.4224      2.00000
    105       8.4977      2.00000
    106       8.5135      2.00000
    107       8.5514      2.00000
    108       8.9730      2.00000
    109      11.4837      0.00000
    110      11.5168      0.00000
    111      11.7650      0.00000
    112      11.8738      0.00000
    113      11.9077      0.00000
    114      12.0490      0.00000
    115      12.0835      0.00000
    116      12.1466      0.00000
    117      12.1755      0.00000
    118      12.2552      0.00000
    119      12.2685      0.00000
    120      12.3245      0.00000
    121      12.3563      0.00000
    122      12.4457      0.00000
    123      12.5030      0.00000
    124      12.5736      0.00000


--------------------------------------------------------------------------------------------------------


 soft charge-density along one line, spin component           1
         0         1         2         3         4         5         6         7         8         9
 total charge-density along one line
 
 pseudopotential strength for first ion, spin component:           1
  5.756 -20.260  -0.001  -0.001  -0.001   0.002   0.002   0.002
-20.260   9.179  -0.002  -0.002  -0.001   0.000   0.000   0.000
 -0.001  -0.002  -9.745  -0.001  -0.004   5.977   0.001   0.004
 -0.001  -0.002  -0.001  -9.745  -0.001   0.001   5.977   0.001
 -0.001  -0.001  -0.004  -0.001  -9.745   0.004   0.001   5.977
  0.002   0.000   5.977   0.001   0.004   7.961  -0.001  -0.003
  0.002   0.000   0.001   5.977   0.001  -0.001   7.961  -0.001
  0.002   0.000   0.004   0.001   5.977  -0.003  -0.001   7.961
 -0.003  -0.001  -0.001  -0.000  -0.001   0.001   0.000   0.001
 -0.001  -0.000  -0.001  -0.001  -0.000   0.001   0.001   0.000
  0.000   0.000   0.000  -0.001   0.000  -0.001   0.001  -0.001
 -0.001  -0.000  -0.000  -0.001  -0.001   0.000   0.001   0.001
  0.000   0.000   0.001   0.000  -0.001  -0.001  -0.000   0.001
 -0.004  -0.002  -0.001  -0.000  -0.001   0.002   0.000   0.002
 -0.001  -0.000  -0.001  -0.001  -0.000   0.002   0.002   0.000
  0.000   0.000   0.001  -0.001   0.001  -0.001   0.001  -0.001
 -0.001  -0.000  -0.000  -0.001  -0.001   0.000   0.002   0.002
  0.000   0.000   0.001   0.000  -0.001  -0.001  -0.000   0.001
 total augmentation occupancy for first ion, spin component:           1
  1.995  -0.044   0.000   0.000   0.000   0.000   0.000   0.000  -0.006  -0.004   0.000  -0.004   0.000   0.006   0.003  -0.000
 -0.044   1.332   0.001   0.001   0.001   0.001   0.001   0.001  -0.051  -0.007   0.001  -0.008  -0.000   0.035  -0.001  -0.000
  0.000   0.001   1.996   0.000   0.000  -0.027  -0.001  -0.000   0.003   0.003   0.001   0.004   0.002  -0.002  -0.002  -0.001
  0.000   0.001   0.000   1.996   0.000  -0.001  -0.026  -0.001   0.004   0.003  -0.002   0.003  -0.000  -0.003  -0.002   0.001
  0.000   0.001   0.000   0.000   1.996  -0.000  -0.001  -0.026   0.003   0.004   0.001   0.003  -0.001  -0.002  -0.003  -0.000
  0.000   0.001  -0.027  -0.001  -0.000   0.064   0.001   0.000  -0.001  -0.001  -0.003  -0.005  -0.005   0.001   0.001   0.001
  0.000   0.001  -0.001  -0.026  -0.001   0.001   0.064   0.001  -0.005  -0.001   0.005  -0.001   0.000   0.003   0.001  -0.002
  0.000   0.001  -0.000  -0.001  -0.026   0.000   0.001   0.063  -0.001  -0.005  -0.002  -0.001   0.004   0.001   0.003   0.001
 -0.006  -0.051   0.003   0.004   0.003  -0.001  -0.005  -0.001   3.369   0.009   0.054   0.013  -0.003  -1.416  -0.012  -0.025
 -0.004  -0.007   0.003   0.003   0.004  -0.001  -0.001  -0.005   0.009   3.368  -0.014  -0.161   0.030  -0.012  -1.416   0.007
  0.000   0.001   0.001  -0.002   0.001  -0.003   0.005  -0.002   0.054  -0.014   2.789  -0.015   0.002  -0.024   0.006  -1.268
 -0.004  -0.008   0.004   0.003   0.003  -0.005  -0.001  -0.001   0.013  -0.161  -0.015   3.387  -0.029  -0.013   0.086   0.007
  0.000  -0.000   0.002  -0.000  -0.001  -0.005   0.000   0.004  -0.003   0.030   0.002  -0.029   2.792   0.001  -0.013  -0.001
  0.006   0.035  -0.002  -0.003  -0.002   0.001   0.003   0.001  -1.416  -0.012  -0.024  -0.013   0.001   0.607   0.008   0.011
  0.003  -0.001  -0.002  -0.002  -0.003   0.001   0.001   0.003  -0.012  -1.416   0.006   0.086  -0.013   0.008   0.608  -0.003
 -0.000  -0.000  -0.001   0.001  -0.000   0.001  -0.002   0.001  -0.025   0.007  -1.268   0.007  -0.001   0.011  -0.003   0.583
  0.003  -0.001  -0.003  -0.002  -0.002   0.003   0.001   0.001  -0.013   0.086   0.007  -1.423   0.013   0.008  -0.045  -0.003
 -0.000   0.000  -0.001   0.000   0.001   0.002  -0.000  -0.002   0.001  -0.013  -0.001   0.013  -1.269  -0.000   0.006   0.000


------------------------ aborting loop because EDIFF is reached ----------------------------------------


    CHARGE:  cpu time      0.0809: real time      0.0812
    FORLOC:  cpu time      0.0005: real time      0.0005
    FORNL :  cpu time      0.8065: real time      0.8092
    STRESS:  cpu time      0.9820: real time      0.9852
    FORCOR:  cpu time      0.0044: real time      0.0045
    FORHAR:  cpu time      0.0014: real time      0.0016
    MIXING:  cpu time      0.0005: real time      0.0005
    OFIELD:  cpu time      0.0000: real time      0.0000

  FORCE on cell =-STRESS in cart. coord.  units (eV):
  Direction    XX          YY          ZZ          XY          YZ          ZX
  --------------------------------------------------------------------------------------
  Alpha Z  1699.86387  1699.86387  1699.86387
  Ewald   -7080.07288 -7080.07288 -7043.83892    -9.48457    -1.05384     1.05384
  Hartree  1206.75792  1205.61246  1241.93911   -10.61583    -1.17504     0.76541
  E(xc)    -942.97539  -942.97630  -942.96336     0.06565     0.00471     0.00124
  Local    1596.74484  1598.55267  1525.17833    18.54019     1.91890    -1.46841
  n-local  -399.46193  -399.82597  -399.07040     0.01003     0.52130    -0.42222
  augment   434.75333   434.62479   434.64190     0.23931     0.02383    -0.03921
  Kinetic  3462.61131  3462.14369  3462.11851     0.71466    -0.44821     0.16868
  Fock        0.00000     0.00000     0.00000     0.00000     0.00000     0.00000
  -------------------------------------------------------------------------------------
  Total     -21.77894   -22.07766   -22.13098    -0.53056    -0.20836     0.05934
  in kB    -122.48126  -124.16121  -124.46106    -2.98379    -1.17177     0.33369
  external pressure =     -123.70 kB  Pullay stress =        0.00 kB


 VOLUME and BASIS-vectors are now :
 -----------------------------------------------------------------------------
  energy-cutoff  :      250.00
  volume of cell :      284.89
      direct lattice vectors                 reciprocal lattice vectors
     6.580000000  0.000000000  0.000000000     0.151975684  0.000000000  0.000000000
     0.000000000  6.580000000  0.000000000     0.000000000  0.151975684  0.000000000
     0.000000000  0.000000000  6.580000000     0.000000000  0.000000000  0.151975684

  length of vectors
     6.580000000  6.580000000  6.580000000     0.151975684  0.151975684  0.151975684


 FORCES acting on ions
    electron-ion (+dipol)            ewald-force                    non-local-force                 convergence-correction
 -----------------------------------------------------------------------------------------------
   -.105E+02 -.105E+02 -.105E+02   0.102E+02 0.102E+02 0.102E+02   0.499E-01 0.502E-01 0.532E-01   0.169E-03 0.215E-03 -.562E-03
   0.105E+02 0.104E+02 -.104E+02   -.102E+02 -.102E+02 0.102E+02   -.400E-01 -.416E-01 0.441E-01   -.241E-03 -.155E-03 -.534E-03
   -.104E+02 0.104E+02 0.105E+02   0.102E+02 -.102E+02 -.102E+02   0.409E-01 -.439E-01 -.464E-01   0.170E-03 -.149E-03 0.472E-03
   -.105E+02 0.104E+02 0.105E+02   0.102E+02 -.102E+02 -.102E+02   0.989E-01 0.570E-01 -.110E+00   -.358E-04 -.407E-03 0.323E-03
   0.105E+02 -.103E+02 -.105E+02   -.102E+02 0.102E+02 0.102E+02   -.881E-01 -.772E-01 0.857E-01   0.354E-04 0.388E-03 -.218E-03
   0.105E+02 -.103E+02 0.105E+02   -.102E+02 0.102E+02 -.102E+02   -.950E-01 -.586E-01 -.927E-01   -.282E-05 0.474E-03 0.202E-03
   0.111E+02 -.111E+02 -.111E+02   -.110E+02 0.110E+02 0.110E+02   0.391E-01 -.391E-01 -.220E-01   -.188E-03 0.173E-03 -.633E-03
   -.111E+02 0.111E+02 -.111E+02   0.110E+02 -.110E+02 0.110E+02   -.524E-01 0.545E-01 -.545E-01   0.275E-03 -.252E-03 -.474E-03
   -.112E+02 0.110E+02 -.112E+02   0.110E+02 -.110E+02 0.110E+02   0.537E-01 0.792E-01 0.542E-01   -.990E-04 -.373E-03 -.340E-03
   -.111E+02 -.111E+02 0.111E+02   0.110E+02 0.110E+02 -.110E+02   -.217E-01 -.399E-01 0.459E-01   0.143E-03 0.175E-03 0.588E-03
   0.112E+02 -.112E+02 0.112E+02   -.110E+02 0.110E+02 -.110E+02   -.274E-01 0.269E-01 -.214E-01   -.137E-03 0.122E-03 0.635E-03
   -.896E+01 -.891E+01 -.895E+01   0.863E+01 0.863E+01 0.863E+01   0.818E-01 0.115E-02 0.781E-01   -.128E-04 0.304E-03 -.250E-03
   0.892E+01 0.887E+01 0.892E+01   -.863E+01 -.863E+01 -.863E+01   -.576E-01 0.523E-01 -.572E-01   0.186E-04 -.424E-03 0.247E-03
   0.895E+01 0.889E+01 -.895E+01   -.863E+01 -.863E+01 0.863E+01   -.102E+00 0.295E-01 0.766E-01   0.719E-04 -.331E-03 -.246E-03
   -.893E+01 -.884E+01 0.892E+01   0.863E+01 0.863E+01 -.863E+01   0.518E-01 -.481E-01 -.609E-01   0.177E-04 0.347E-03 0.247E-03
   0.111E+02 0.111E+02 0.111E+02   -.110E+02 -.110E+02 -.110E+02   0.702E-01 0.555E-01 0.744E-01   -.182E-03 -.113E-03 0.568E-03
 -----------------------------------------------------------------------------------------------
   -.170E-02 -.579E-01 -.476E-01   0.426E-13 0.711E-14 0.114E-12   0.170E-02 0.578E-01 0.475E-01   0.252E-05 -.652E-05 0.264E-04
 
 
 POSITION                                       TOTAL-FORCE (eV/Angst)
 -----------------------------------------------------------------------------------
      1.64500      1.64500      4.93500        -0.211854     -0.236074     -0.207529
      4.93500      4.93500      4.93500         0.233895      0.202312     -0.197318
      1.64500      4.93500      1.64500        -0.198913      0.199742      0.223575
      0.00000      0.00000      0.00000        -0.173246      0.224291      0.165240
      3.29000      3.29000      3.29000         0.164791     -0.203107     -0.190005
      3.29000      3.29000      0.00000         0.162595     -0.199614      0.178413
      4.93500      1.64500      4.93500         0.168920     -0.175712     -0.160236
      1.64500      4.93500      4.93500        -0.162351      0.155994     -0.158041
      0.00000      0.00000      3.29000        -0.175180      0.124180     -0.193202
      1.64500      1.64500      1.64500        -0.167766     -0.178679      0.174513
      4.93500      1.64500      1.64500         0.170880     -0.163974      0.166612
      0.00000      3.29000      3.29000        -0.246090     -0.276721     -0.238972
      3.29000      0.00000      0.00000         0.236920      0.288166      0.231443
      3.29000      0.00000      3.29000         0.221753      0.287944     -0.239742
      0.00000      3.29000      0.00000        -0.244942     -0.256714      0.232114
      4.93500      4.93500      1.64500         0.220590      0.207966      0.213137
 -----------------------------------------------------------------------------------
    total drift:                                0.000002     -0.000022      0.000005


--------------------------------------------------------------------------------------------------------



  FREE ENERGIE OF THE ION-ELECTRON SYSTEM (eV)
  ---------------------------------------------------
  free  energy   TOTEN  =      -177.19560036 eV

  energy  without entropy=     -177.19061643  energy(sigma->0) =     -177.19310840
 


--------------------------------------------------------------------------------------------------------


    POTLOK:  cpu time      0.0060: real time      0.0060


--------------------------------------------------------------------------------------------------------


     LOOP+:  cpu time     86.2372: real time     86.6659
    4ORBIT:  cpu time      0.0000: real time      0.0000

 total amount of memory used by VASP MPI-rank0    47987. kBytes
=======================================================================

   base      :      30000. kBytes
   nonl-proj :       8332. kBytes
   fftplans  :        456. kBytes
   grid      :        919. kBytes
   one-center:         31. kBytes
   wavefun   :       8249. kBytes
 
  
  
 General timing and accounting informations for this job:
 ========================================================
  
                  Total CPU time used (sec):       90.015
                            User time (sec):       88.819
                          System time (sec):        1.196
                         Elapsed time (sec):      102.919
  
                   Maximum memory used (kb):       90872.
                   Average memory used (kb):          N/A
  
                          Minor page faults:         9218
                          Major page faults:            0
                 Voluntary context switches:          245
