 vasp.6.3.1 04May22 (build Jul 26 2022 04:02:40) complex                        
  
 executed on             LinuxIFC date 2023.11.30  03:03:24
 running on   48 total cores
 distrk:  each k-point on   48 cores,    1 groups
 distr:  one band on NCORE=  12 cores,    4 groups


--------------------------------------------------------------------------------------------------------


 INCAR:
   ISTART = 0
   NWRITE = 2
   PREC = Accurate
   ENCUT = 250
   GGA = PE
   NSW = 0
   ISIF = 2
   ISYM = 2
   NBLOCK = 1
   KBLOCK = 1
   IBRION = -1
   NELM = 80
   EDIFF = 1E-08
   EDIFFG = -0.01
   ALGO = Normal
   LDIAG = .TRUE.
   LREAL = .FALSE.
   ISMEAR = 0
   SIGMA = 0.02
   ICHARG = 2
   LPLANE = .TRUE.
   NPAR = 4
   LSCALU = .FALSE.
   NSIM = 4
   LWAVE = .FALSE.
   LCHARG = .FALSE.
   ICORELEVEL = 1

 POTCAR:    PAW_PBE Nb_sv 25May2007               
 POTCAR:    PAW_PBE Mo_sv 02Feb2006               
 POTCAR:    PAW_PBE Ta_pv 07Sep2000               
 POTCAR:    PAW_PBE W_sv 04Sep2015                
 POTCAR:    PAW_PBE Nb_sv 25May2007               
   SHA256 =  0e8fc07c9fcd1164cf2ade22d0399fd28f85e91cd773dfa6cf24839a48c95e24 Nb_sv/POTCAR          
   COPYR  = (c) Copyright 25May2007 Georg Kresse                                                    
   COPYR  = This file is part of the software VASP. Any use, copying, and all other rights are regul
   COPYR  = If you do not have a valid VASP license, you may not use, copy or distribute this file. 
   VRHFIN =Nb: 4p5s4d                                                                               
   LEXCH  = PE                                                                                      
   EATOM  =  1555.1913 eV,  114.3033 Ry                                                             
                                                                                                    
   TITEL  = PAW_PBE Nb_sv 25May2007                                                                 
   LULTRA =        F    use ultrasoft PP ?                                                          
   IUNSCR =        1    unscreen: 0-lin 1-nonlin 2-no                                               
   RPACOR =    1.800    partial core radius                                                         
   POMASS =   92.910; ZVAL   =   13.000    mass and valenz                                          
   RCORE  =    2.400    outmost cutoff radius                                                       
   RWIGS  =    2.400; RWIGS  =    1.270    wigner-seitz radius (au A)                               
   ENMAX  =  293.235; ENMIN  =  219.927 eV                                                          
   ICORE  =        3    local potential                                                             
   LCOR   =        T    correct aug charges                                                         
   LPAW   =        T    paw PP                                                                      
   EAUG   =  455.659                                                                                
   DEXC   =    0.000                                                                                
   RMAX   =    2.456    core radius for proj-oper                                                   
   RAUG   =    1.300    factor for augmentation sphere                                              
   RDEP   =    2.451    radius for radial grids                                                     
   RDEPT  =    1.956    core radius for aug-charge                                                  
                                                                                                    
   Atomic configuration                                                                             
   11 entries                                                                                       
     n  l   j            E        occ.                                                              
     1  0  0.50    -18805.2457   2.0000                                                             
     2  0  0.50     -2630.2869   2.0000                                                             
     2  1  1.50     -2348.4046   6.0000                                                             
     3  0  0.50      -438.8757   2.0000                                                             
     3  1  1.50      -346.7588   6.0000                                                             
     3  2  2.50      -196.2560  10.0000                                                             
     4  0  0.50       -58.3859   2.0000                                                             
     5  0  0.50        -3.9816   1.0000                                                             
     4  1  1.50       -34.5141   6.0000                                                             
     4  2  2.50        -3.0408   4.0000                                                             
     4  3  2.50        -1.3606   0.0000                                                             
   Description                                                                                      
     l       E           TYP  RCUT    TYP  RCUT                                                     
     0    -58.3859094     23  2.200                                                                 
     0     -3.9816262     23  2.200                                                                 
     1    -34.5140738     23  2.200                                                                 
     1     13.6058260     23  2.200                                                                 
     2     -3.0408010     23  2.200                                                                 
     2     -0.1283038     23  2.200                                                                 
     3     -1.3605826     23  2.400                                                                 
  local pseudopotential read in
  partial core-charges read in
  partial kinetic energy density read in
  atomic valenz-charges read in
  non local Contribution for L=           0  read in
    real space projection operators read in
  non local Contribution for L=           0  read in
    real space projection operators read in
  non local Contribution for L=           1  read in
    real space projection operators read in
  non local Contribution for L=           1  read in
    real space projection operators read in
  non local Contribution for L=           2  read in
    real space projection operators read in
  non local Contribution for L=           2  read in
    real space projection operators read in
    PAW grid and wavefunctions read in
 
   number of l-projection  operators is LMAX  =           6
   number of lm-projection operators is LMMAX =          18
 
 POTCAR:    PAW_PBE Mo_sv 02Feb2006               
   SHA256 =  2731df97e41766cc617548c5a8267718fdef1f509ac6bafa01e745abea2bdfaa Mo_sv/POTCAR          
   COPYR  = (c) Copyright 02Feb2006 Georg Kresse                                                    
   COPYR  = This file is part of the software VASP. Any use, copying, and all other rights are regul
   COPYR  = If you do not have a valid VASP license, you may not use, copy or distribute this file. 
   VRHFIN =Mo: 4p5s4d                                                                               
   LEXCH  = PE                                                                                      
   EATOM  =  1862.2866 eV,  136.8742 Ry                                                             
                                                                                                    
   TITEL  = PAW_PBE Mo_sv 02Feb2006                                                                 
   LULTRA =        F    use ultrasoft PP ?                                                          
   IUNSCR =        1    unscreen: 0-lin 1-nonlin 2-no                                               
   RPACOR =    2.200    partial core radius                                                         
   POMASS =   95.940; ZVAL   =   14.000    mass and valenz                                          
   RCORE  =    2.500    outmost cutoff radius                                                       
   RWIGS  =    2.750; RWIGS  =    1.455    wigner-seitz radius (au A)                               
   ENMAX  =  242.676; ENMIN  =  182.007 eV                                                          
   ICORE  =        3    local potential                                                             
   LCOR   =        T    correct aug charges                                                         
   LPAW   =        T    paw PP                                                                      
   EAUG   =  446.014                                                                                
   DEXC   =    0.000                                                                                
   RMAX   =    2.563    core radius for proj-oper                                                   
   RAUG   =    1.300    factor for augmentation sphere                                              
   RDEP   =    2.641    radius for radial grids                                                     
   RDEPT  =    2.031    core radius for aug-charge                                                  
                                                                                                    
   Atomic configuration                                                                             
   11 entries                                                                                       
     n  l   j            E        occ.                                                              
     1  0  0.50    -19819.0341   2.0000                                                             
     2  0  0.50     -2799.0127   2.0000                                                             
     2  1  1.50     -2502.0276   6.0000                                                             
     3  0  0.50      -476.4449   2.0000                                                             
     3  1  1.50      -379.1496   6.0000                                                             
     3  2  2.50      -220.9367  10.0000                                                             
     4  0  0.50       -64.3378   2.0000                                                             
     5  0  0.50        -4.0862   1.0000                                                             
     4  1  1.50       -38.4773   6.0000                                                             
     4  2  2.50        -3.7535   5.0000                                                             
     4  3  2.50        -1.3606   0.0000                                                             
   Description                                                                                      
     l       E           TYP  RCUT    TYP  RCUT                                                     
     0    -64.3377829     23  2.100                                                                 
     0     -4.0861640     23  2.400                                                                 
     1    -38.4772993     23  2.100                                                                 
     1     13.6058260     23  2.100                                                                 
     2     -3.7534941     23  2.400                                                                 
     2     -5.1140767     23  2.400                                                                 
     3     -4.0817478     23  2.500                                                                 
  local pseudopotential read in
  partial core-charges read in
  partial kinetic energy density read in
  atomic valenz-charges read in
  non local Contribution for L=           0  read in
    real space projection operators read in
  non local Contribution for L=           0  read in
    real space projection operators read in
  non local Contribution for L=           1  read in
    real space projection operators read in
  non local Contribution for L=           1  read in
    real space projection operators read in
  non local Contribution for L=           2  read in
    real space projection operators read in
  non local Contribution for L=           2  read in
    real space projection operators read in
    PAW grid and wavefunctions read in
 
   number of l-projection  operators is LMAX  =           6
   number of lm-projection operators is LMMAX =          18
 
 POTCAR:    PAW_PBE Ta_pv 07Sep2000               
   SHA256 =  00d0a14a36c127416459414afb8617d9754996fffa60a2465888e660b20a452f Ta_pv/POTCAR          
   COPYR  = (c) Copyright 07Sep2000 Georg Kresse                                                    
   COPYR  = This file is part of the software VASP. Any use, copying, and all other rights are regul
   COPYR  = If you do not have a valid VASP license, you may not use, copy or distribute this file. 
   VRHFIN =Ta:  5p6s5d                                                                              
   LEXCH  = PE                                                                                      
   EATOM  =  1047.1984 eV,   76.9669 Ry                                                             
                                                                                                    
   TITEL  = PAW_PBE Ta_pv 07Sep2000                                                                 
   LULTRA =        F    use ultrasoft PP ?                                                          
   IUNSCR =        1    unscreen: 0-lin 1-nonlin 2-no                                               
   RPACOR =    2.330    partial core radius                                                         
   POMASS =  180.948; ZVAL   =   11.000    mass and valenz                                          
   RCORE  =    2.500    outmost cutoff radius                                                       
   RWIGS  =    2.840; RWIGS  =    1.503    wigner-seitz radius (au A)                               
   ENMAX  =  223.667; ENMIN  =  167.750 eV                                                          
   RCLOC  =    2.205    cutoff for local pot                                                        
   LCOR   =        T    correct aug charges                                                         
   LPAW   =        T    paw PP                                                                      
   EAUG   =  377.421                                                                                
   DEXC   =    0.000                                                                                
   RMAX   =    2.551    core radius for proj-oper                                                   
   RAUG   =    1.300    factor for augmentation sphere                                              
   RDEP   =    2.526    radius for radial grids                                                     
   RDEPT  =    2.132    core radius for aug-charge                                                  
                                                                                                    
   Atomic configuration                                                                             
   15 entries                                                                                       
     n  l   j            E        occ.                                                              
     1  0  0.50    -67341.2801   2.0000                                                             
     2  0  0.50    -11566.9369   2.0000                                                             
     2  1  1.50    -10134.1175   6.0000                                                             
     3  0  0.50     -2648.5614   2.0000                                                             
     3  1  1.50     -2222.6006   6.0000                                                             
     3  2  2.50     -1726.3114  10.0000                                                             
     4  0  0.50      -538.6957   2.0000                                                             
     4  1  1.50      -399.0125   6.0000                                                             
     4  2  2.50      -220.3955  10.0000                                                             
     4  3  3.50       -23.0371  14.0000                                                             
     5  0  0.50       -71.2900   2.0000                                                             
     5  1  1.50       -37.8224   6.0000                                                             
     5  2  2.50        -2.6455   4.0000                                                             
     6  0  0.50        -4.9623   1.0000                                                             
     5  3  2.50        -1.3606   0.0000                                                             
   Description                                                                                      
     l       E           TYP  RCUT    TYP  RCUT                                                     
     1    -37.8224449     23  2.500                                                                 
     1      1.3605826     23  2.500                                                                 
     2     -2.6454718     23  2.500                                                                 
     2     -0.6258570     23  2.500                                                                 
     0     -4.9622674     23  2.500                                                                 
     0      4.7531427     23  2.500                                                                 
  local pseudopotential read in
  partial core-charges read in
  partial kinetic energy density read in
  atomic valenz-charges read in
  non local Contribution for L=           1  read in
    real space projection operators read in
  non local Contribution for L=           1  read in
    real space projection operators read in
  non local Contribution for L=           2  read in
    real space projection operators read in
  non local Contribution for L=           2  read in
    real space projection operators read in
  non local Contribution for L=           0  read in
    real space projection operators read in
  non local Contribution for L=           0  read in
    real space projection operators read in
    PAW grid and wavefunctions read in
 
   number of l-projection  operators is LMAX  =           6
   number of lm-projection operators is LMMAX =          18
 
 POTCAR:    PAW_PBE W_sv 04Sep2015                
   SHA256 =  931c2d770f65867ef30f3db3421922900fc0890ebac5c3e12f63b6a2064023d7 W_sv/POTCAR           
   COPYR  = (c) Copyright 04Sep2015 Georg Kresse                                                    
   COPYR  = This file is part of the software VASP. Any use, copying, and all other rights are regul
   COPYR  = If you do not have a valid VASP license, you may not use, copy or distribute this file. 
   VRHFIN =W : 5p6s5d                                                                               
   LEXCH  = PE                                                                                      
   EATOM  =  1865.5791 eV,  137.1162 Ry                                                             
                                                                                                    
   TITEL  = PAW_PBE W_sv 04Sep2015                                                                  
   LULTRA =        F    use ultrasoft PP ?                                                          
   IUNSCR =        1    unscreen: 0-lin 1-nonlin 2-no                                               
   RPACOR =    2.330    partial core radius                                                         
   POMASS =  183.850; ZVAL   =   14.000    mass and valenz                                          
   RCORE  =    2.500    outmost cutoff radius                                                       
   RWIGS  =    2.750; RWIGS  =    1.455    wigner-seitz radius (au A)                               
   ENMAX  =  223.057; ENMIN  =  167.293 eV                                                          
   ICORE  =        3    local potential                                                             
   LCOR   =        T    correct aug charges                                                         
   LPAW   =        T    paw PP                                                                      
   EAUG   =  373.438                                                                                
   DEXC   =    0.000                                                                                
   RMAX   =    2.565    core radius for proj-oper                                                   
   RAUG   =    1.300    factor for augmentation sphere                                              
   RDEP   =    2.539    radius for radial grids                                                     
   RDEPT  =    2.126    core radius for aug-charge                                                  
                                                                                                    
   Atomic configuration                                                                             
   15 entries                                                                                       
     n  l   j            E        occ.                                                              
     1  0  0.50    -69465.5834   2.0000                                                             
     2  0  0.50    -11986.2640   2.0000                                                             
     2  1  1.50    -10479.8613   6.0000                                                             
     3  0  0.50     -2759.0756   2.0000                                                             
     3  1  1.50     -2313.1855   6.0000                                                             
     3  2  2.50     -1801.1183  10.0000                                                             
     4  0  0.50      -567.6789   2.0000                                                             
     4  1  1.50      -421.4692   6.0000                                                             
     4  2  2.50      -236.3471  10.0000                                                             
     4  3  3.50       -31.2665  14.0000                                                             
     5  0  0.50       -77.1084   2.0000                                                             
     6  0  0.50        -5.1438   1.0000                                                             
     5  1  1.50       -41.3856   6.0000                                                             
     5  2  2.50        -3.3185   5.0000                                                             
     5  3  2.50        -1.3606   0.0000                                                             
   Description                                                                                      
     l       E           TYP  RCUT    TYP  RCUT                                                     
     0    -77.1084470     23  2.100                                                                 
     0     -5.1437956     23  2.300                                                                 
     1    -41.3855615     23  2.500                                                                 
     1     -2.7211652     23  2.500                                                                 
     2     -3.3185025     23  2.500                                                                 
     2     -1.5965151     23  2.500                                                                 
     3     -1.3605826     23  2.500                                                                 
  local pseudopotential read in
  partial core-charges read in
  partial kinetic energy density read in
  kinetic energy density of atom read in
  atomic valenz-charges read in
  non local Contribution for L=           0  read in
    real space projection operators read in
  non local Contribution for L=           0  read in
    real space projection operators read in
  non local Contribution for L=           1  read in
    real space projection operators read in
  non local Contribution for L=           1  read in
    real space projection operators read in
  non local Contribution for L=           2  read in
    real space projection operators read in
  non local Contribution for L=           2  read in
    real space projection operators read in
    PAW grid and wavefunctions read in
 
   number of l-projection  operators is LMAX  =           6
   number of lm-projection operators is LMMAX =          18
 
  PAW_PBE Nb_sv 25May2007               :
 energy of atom  1       EATOM=-1555.1913
 kinetic energy error for atom=    0.2155 (will be added to EATOM!!)
  PAW_PBE Mo_sv 02Feb2006               :
 energy of atom  2       EATOM=-1862.2866
 kinetic energy error for atom=    0.1102 (will be added to EATOM!!)
  PAW_PBE Ta_pv 07Sep2000               :
 energy of atom  3       EATOM=-1047.1984
 kinetic energy error for atom=    0.0394 (will be added to EATOM!!)
  PAW_PBE W_sv 04Sep2015                :
 energy of atom  4       EATOM=-1865.5791
 kinetic energy error for atom=    0.0589 (will be added to EATOM!!)
 
 
 POSCAR: Nb-Mo-Ta-W alloy
  positions in direct lattice
  No initial velocities read in
 exchange correlation table for  LEXCH =        8
   RHO(1)=    0.500       N(1)  =     2000
   RHO(2)=  100.500       N(2)  =     4000
 


--------------------------------------------------------------------------------------------------------


 ion  position               nearest neighbor table
   1  0.000  0.000  0.000-   3 2.85   4 2.85   5 2.85   7 2.85   8 2.85  10 2.85  12 2.85  16 2.85

   2  0.500  0.000  0.500-   3 2.85   4 2.85   5 2.85   7 2.85   8 2.85  10 2.85  12 2.85  16 2.85

   3  0.250  0.750  0.250-   1 2.85   2 2.85   6 2.85   9 2.85  11 2.85  13 2.85  14 2.85  15 2.85
                            10 3.29   8 3.29  12 3.29  10 3.29  12 3.29   8 3.29
   4  0.250  0.250  0.750-   1 2.85   2 2.85   6 2.85   9 2.85  11 2.85  13 2.85  14 2.85  15 2.85
                            10 3.29   5 3.29  12 3.29  12 3.29  10 3.29   5 3.29
   5  0.750  0.250  0.750-   1 2.85   2 2.85   6 2.85   9 2.85  11 2.85  13 2.85  14 2.85  15 2.85
                             7 3.29   4 3.29  16 3.29  16 3.29   7 3.29   4 3.29
   6  0.000  0.500  0.000-   3 2.85   4 2.85   5 2.85   7 2.85   8 2.85  10 2.85  12 2.85  16 2.85
                            15 3.29  11 3.29  15 3.29  11 3.29
   7  0.750  0.750  0.750-   1 2.85   2 2.85   6 2.85   9 2.85  11 2.85  13 2.85  14 2.85  15 2.85
                             5 3.29  10 3.29   8 3.29   8 3.29   5 3.29  10 3.29
   8  0.750  0.750  0.250-   1 2.85   2 2.85   6 2.85   9 2.85  11 2.85  13 2.85  14 2.85  15 2.85
                             7 3.29   3 3.29  16 3.29   7 3.29  16 3.29   3 3.29
   9  0.000  0.000  0.500-   3 2.85   4 2.85   5 2.85   7 2.85   8 2.85  10 2.85  12 2.85  16 2.85
                            15 3.29  15 3.29
  10  0.250  0.750  0.750-   1 2.85   2 2.85   6 2.85   9 2.85  11 2.85  13 2.85  14 2.85  15 2.85
                             7 3.29   4 3.29   3 3.29   3 3.29   4 3.29   7 3.29
  11  0.500  0.500  0.000-   3 2.85   4 2.85   5 2.85   7 2.85   8 2.85  10 2.85  12 2.85  16 2.85
                            13 3.29  14 3.29   6 3.29  14 3.29  13 3.29   6 3.29
  12  0.250  0.250  0.250-   1 2.85   2 2.85   6 2.85   9 2.85  11 2.85  13 2.85  14 2.85  15 2.85
                             3 3.29   4 3.29  16 3.29   4 3.29   3 3.29  16 3.29
  13  0.500  0.000  0.000-   3 2.85   4 2.85   5 2.85   7 2.85   8 2.85  10 2.85  12 2.85  16 2.85
                            11 3.29  11 3.29
  14  0.500  0.500  0.500-   3 2.85   4 2.85   5 2.85   7 2.85   8 2.85  10 2.85  12 2.85  16 2.85
                            15 3.29  11 3.29  11 3.29  15 3.29
  15  0.000  0.500  0.500-   3 2.85   4 2.85   5 2.85   7 2.85   8 2.85  10 2.85  12 2.85  16 2.85
                             9 3.29  14 3.29   6 3.29   6 3.29   9 3.29  14 3.29
  16  0.750  0.250  0.250-   1 2.85   2 2.85   6 2.85   9 2.85  11 2.85  13 2.85  14 2.85  15 2.85
                             5 3.29   8 3.29  12 3.29   5 3.29   8 3.29  12 3.29
 
  LATTYP: Found a simple cubic cell.
 ALAT       =     6.5800000000
  
  Lattice vectors:
  
 A1 = (   6.5800000000,   0.0000000000,   0.0000000000)
 A2 = (   0.0000000000,   6.5800000000,   0.0000000000)
 A3 = (   0.0000000000,   0.0000000000,   6.5800000000)


Analysis of symmetry for initial positions (statically):
=====================================================================
 Subroutine PRICEL returns:
 Original cell was already a primitive cell.
 

 Routine SETGRP: Setting up the symmetry group for a 
 simple cubic supercell.


 Subroutine GETGRP returns: Found  1 space group operations
 (whereof  1 operations were pure point group operations)
 out of a pool of 48 trial point group operations.


The static configuration has the point symmetry C_1 .


Analysis of symmetry for dynamics (positions and initial velocities):
=====================================================================
 Subroutine PRICEL returns:
 Original cell was already a primitive cell.
 

 Routine SETGRP: Setting up the symmetry group for a 
 simple cubic supercell.


 Subroutine GETGRP returns: Found  1 space group operations
 (whereof  1 operations were pure point group operations)
 out of a pool of 48 trial point group operations.


The dynamic configuration has the point symmetry C_1 .


 Subroutine INISYM returns: Found  1 space group operations
 (whereof  1 operations are pure point group operations),
 and found     1 'primitive' translations


----------------------------------------------------------------------------------------

                                     Primitive cell                                     

  volume of cell :     284.8903

  direct lattice vectors                    reciprocal lattice vectors
     6.580000000  0.000000000  0.000000000     0.151975684  0.000000000  0.000000000
     0.000000000  6.580000000  0.000000000     0.000000000  0.151975684  0.000000000
     0.000000000  0.000000000  6.580000000     0.000000000  0.000000000  0.151975684

  length of vectors
     6.580000000  6.580000000  6.580000000     0.151975684  0.151975684  0.151975684

  position of ions in fractional coordinates (direct lattice)
     0.000000000  0.000000000  0.000000000
     0.500000000  0.000000000  0.500000000
     0.250000000  0.750000000  0.250000000
     0.250000000  0.250000000  0.750000000
     0.750000000  0.250000000  0.750000000
     0.000000000  0.500000000  0.000000000
     0.750000000  0.750000000  0.750000000
     0.750000000  0.750000000  0.250000000
     0.000000000  0.000000000  0.500000000
     0.250000000  0.750000000  0.750000000
     0.500000000  0.500000000  0.000000000
     0.250000000  0.250000000  0.250000000
     0.500000000  0.000000000  0.000000000
     0.500000000  0.500000000  0.500000000
     0.000000000  0.500000000  0.500000000
     0.750000000  0.250000000  0.250000000

  ion indices of the primitive-cell ions
   primitive index   ion index
                 1           1
                 2           2
                 3           3
                 4           4
                 5           5
                 6           6
                 7           7
                 8           8
                 9           9
                10          10
                11          11
                12          12
                13          13
                14          14
                15          15
                16          16

----------------------------------------------------------------------------------------

 
 
 KPOINTS: K-Spacing Value to Generate K-Mesh: 0.03

Automatic generation of k-mesh.
 Grid dimensions read from file:
 generate k-points for:    5    5    5

 Generating k-lattice:

  Cartesian coordinates                     Fractional coordinates (reciprocal lattice)
     0.030395137  0.000000000  0.000000000     0.200000000  0.000000000  0.000000000
     0.000000000  0.030395137  0.000000000     0.000000000  0.200000000  0.000000000
     0.000000000  0.000000000  0.030395137     0.000000000  0.000000000  0.200000000

  Length of vectors
     0.030395137  0.030395137  0.030395137

  Shift w.r.t. Gamma in fractional coordinates (k-lattice)
     0.000000000  0.000000000  0.000000000

 
 Subroutine IBZKPT returns following result:
 ===========================================
 
 Found     63 irreducible k-points:
 
 Following reciprocal coordinates:
            Coordinates               Weight
  0.000000  0.000000  0.000000      1.000000
  0.200000  0.000000  0.000000      2.000000
  0.000000  0.200000  0.000000      2.000000
  0.000000  0.000000  0.200000      2.000000
  0.400000  0.000000  0.000000      2.000000
  0.000000  0.400000  0.000000      2.000000
  0.000000  0.000000  0.400000      2.000000
  0.200000  0.200000  0.000000      2.000000
  0.000000  0.200000  0.200000      2.000000
  0.200000  0.000000  0.200000      2.000000
 -0.200000  0.200000  0.000000      2.000000
 -0.200000  0.000000  0.200000      2.000000
  0.000000 -0.200000  0.200000      2.000000
  0.400000  0.200000  0.000000      2.000000
  0.000000  0.400000  0.200000      2.000000
  0.200000  0.000000  0.400000      2.000000
 -0.200000  0.400000  0.000000      2.000000
 -0.400000  0.000000  0.200000      2.000000
  0.000000  0.200000  0.400000      2.000000
  0.000000 -0.400000  0.200000      2.000000
 -0.200000  0.000000  0.400000      2.000000
  0.400000  0.000000  0.200000      2.000000
  0.000000 -0.200000  0.400000      2.000000
  0.400000 -0.200000  0.000000      2.000000
  0.200000  0.400000  0.000000      2.000000
  0.400000  0.400000  0.000000      2.000000
  0.000000  0.400000  0.400000      2.000000
  0.400000  0.000000  0.400000      2.000000
 -0.400000  0.400000  0.000000      2.000000
 -0.400000  0.000000  0.400000      2.000000
  0.000000 -0.400000  0.400000      2.000000
  0.200000  0.200000  0.200000      2.000000
 -0.200000  0.200000  0.200000      2.000000
 -0.200000 -0.200000  0.200000      2.000000
  0.200000 -0.200000  0.200000      2.000000
  0.400000  0.200000  0.200000      2.000000
  0.200000  0.400000  0.200000      2.000000
  0.200000  0.200000  0.400000      2.000000
 -0.200000  0.400000  0.200000      2.000000
 -0.400000  0.200000  0.200000      2.000000
 -0.200000  0.200000  0.400000      2.000000
 -0.400000 -0.200000  0.200000      2.000000
 -0.200000 -0.400000  0.200000      2.000000
 -0.200000 -0.200000  0.400000      2.000000
  0.200000 -0.400000  0.200000      2.000000
  0.400000 -0.200000  0.200000      2.000000
  0.200000 -0.200000  0.400000      2.000000
  0.400000  0.400000  0.200000      2.000000
  0.200000  0.400000  0.400000      2.000000
  0.400000  0.200000  0.400000      2.000000
 -0.400000  0.400000  0.200000      2.000000
 -0.400000  0.200000  0.400000      2.000000
 -0.200000  0.400000  0.400000      2.000000
 -0.400000 -0.400000  0.200000      2.000000
 -0.200000 -0.400000  0.400000      2.000000
 -0.400000 -0.200000  0.400000      2.000000
  0.400000 -0.400000  0.200000      2.000000
  0.400000 -0.200000  0.400000      2.000000
  0.200000 -0.400000  0.400000      2.000000
  0.400000  0.400000  0.400000      2.000000
 -0.400000  0.400000  0.400000      2.000000
 -0.400000 -0.400000  0.400000      2.000000
  0.400000 -0.400000  0.400000      2.000000
 
 Following cartesian coordinates:
            Coordinates               Weight
  0.000000  0.000000  0.000000      1.000000
  0.030395  0.000000  0.000000      2.000000
  0.000000  0.030395  0.000000      2.000000
  0.000000  0.000000  0.030395      2.000000
  0.060790  0.000000  0.000000      2.000000
  0.000000  0.060790  0.000000      2.000000
  0.000000  0.000000  0.060790      2.000000
  0.030395  0.030395  0.000000      2.000000
  0.000000  0.030395  0.030395      2.000000
  0.030395  0.000000  0.030395      2.000000
 -0.030395  0.030395  0.000000      2.000000
 -0.030395  0.000000  0.030395      2.000000
  0.000000 -0.030395  0.030395      2.000000
  0.060790  0.030395  0.000000      2.000000
  0.000000  0.060790  0.030395      2.000000
  0.030395  0.000000  0.060790      2.000000
 -0.030395  0.060790  0.000000      2.000000
 -0.060790  0.000000  0.030395      2.000000
  0.000000  0.030395  0.060790      2.000000
  0.000000 -0.060790  0.030395      2.000000
 -0.030395  0.000000  0.060790      2.000000
  0.060790  0.000000  0.030395      2.000000
  0.000000 -0.030395  0.060790      2.000000
  0.060790 -0.030395  0.000000      2.000000
  0.030395  0.060790  0.000000      2.000000
  0.060790  0.060790  0.000000      2.000000
  0.000000  0.060790  0.060790      2.000000
  0.060790  0.000000  0.060790      2.000000
 -0.060790  0.060790  0.000000      2.000000
 -0.060790  0.000000  0.060790      2.000000
  0.000000 -0.060790  0.060790      2.000000
  0.030395  0.030395  0.030395      2.000000
 -0.030395  0.030395  0.030395      2.000000
 -0.030395 -0.030395  0.030395      2.000000
  0.030395 -0.030395  0.030395      2.000000
  0.060790  0.030395  0.030395      2.000000
  0.030395  0.060790  0.030395      2.000000
  0.030395  0.030395  0.060790      2.000000
 -0.030395  0.060790  0.030395      2.000000
 -0.060790  0.030395  0.030395      2.000000
 -0.030395  0.030395  0.060790      2.000000
 -0.060790 -0.030395  0.030395      2.000000
 -0.030395 -0.060790  0.030395      2.000000
 -0.030395 -0.030395  0.060790      2.000000
  0.030395 -0.060790  0.030395      2.000000
  0.060790 -0.030395  0.030395      2.000000
  0.030395 -0.030395  0.060790      2.000000
  0.060790  0.060790  0.030395      2.000000
  0.030395  0.060790  0.060790      2.000000
  0.060790  0.030395  0.060790      2.000000
 -0.060790  0.060790  0.030395      2.000000
 -0.060790  0.030395  0.060790      2.000000
 -0.030395  0.060790  0.060790      2.000000
 -0.060790 -0.060790  0.030395      2.000000
 -0.030395 -0.060790  0.060790      2.000000
 -0.060790 -0.030395  0.060790      2.000000
  0.060790 -0.060790  0.030395      2.000000
  0.060790 -0.030395  0.060790      2.000000
  0.030395 -0.060790  0.060790      2.000000
  0.060790  0.060790  0.060790      2.000000
 -0.060790  0.060790  0.060790      2.000000
 -0.060790 -0.060790  0.060790      2.000000
  0.060790 -0.060790  0.060790      2.000000
 


--------------------------------------------------------------------------------------------------------




 Dimension of arrays:
   k-points           NKPTS =     63   k-points in BZ     NKDIM =     63   number of bands    NBANDS=    132
   number of dos      NEDOS =    301   number of ions     NIONS =     16
   non local maximal  LDIM  =      6   non local SUM 2l+1 LMDIM =     18
   total plane-waves  NPLWV =  46656
   max r-space proj   IRMAX =      1   max aug-charges    IRDMAX=   9546
   dimension x,y,z NGX =    36 NGY =   36 NGZ =   36
   dimension x,y,z NGXF=    72 NGYF=   72 NGZF=   72
   support grid    NGXF=    72 NGYF=   72 NGZF=   72
   ions per type =               2   8   2   4
   NGX,Y,Z   is equivalent  to a cutoff of   9.10,  9.10,  9.10 a.u.
   NGXF,Y,Z  is equivalent  to a cutoff of  18.19, 18.19, 18.19 a.u.

 SYSTEM =  unknown system                          
 POSCAR =  Nb-Mo-Ta-W alloy                        

 Startparameter for this run:
   NWRITE =      2    write-flag & timer
   PREC   = accura    normal or accurate (medium, high low for compatibility)
   ISTART =      0    job   : 0-new  1-cont  2-samecut
   ICHARG =      2    charge: 1-file 2-atom 10-const
   ISPIN  =      1    spin polarized calculation?
   LNONCOLLINEAR =      F non collinear calculations
   LSORBIT =      F    spin-orbit coupling
   INIWAV =      1    electr: 0-lowe 1-rand  2-diag
   LASPH  =      F    aspherical Exc in radial PAW
 Electronic Relaxation 1
   ENCUT  =  250.0 eV  18.37 Ry    4.29 a.u.   8.48  8.48  8.48*2*pi/ulx,y,z
   ENINI  =  250.0     initial cutoff
   ENAUG  =  455.7 eV  augmentation charge cutoff
   NELM   =     80;   NELMIN=  2; NELMDL= -5     # of ELM steps 
   EDIFF  = 0.1E-07   stopping-criterion for ELM
   LREAL  =      F    real-space projection
   NLSPLINE    = F    spline interpolate recip. space projectors
   LCOMPAT=      F    compatible to vasp.4.4
   GGA_COMPAT  = T    GGA compatible to vasp.4.4-vasp.4.6
   LMAXPAW     = -100 max onsite density
   LMAXMIX     =    2 max onsite mixed and CHGCAR
   VOSKOWN=      0    Vosko Wilk Nusair interpolation
   ROPT   =    0.00000   0.00000   0.00000   0.00000
 Ionic relaxation
   EDIFFG = -.1E-01   stopping-criterion for IOM
   NSW    =      0    number of steps for IOM
   NBLOCK =      1;   KBLOCK =      1    inner block; outer block 
   IBRION =     -1    ionic relax: 0-MD 1-quasi-New 2-CG
   NFREE  =      0    steps in history (QN), initial steepest desc. (CG)
   ISIF   =      2    stress and relaxation
   IWAVPR =     10    prediction:  0-non 1-charg 2-wave 3-comb
   ISYM   =      2    0-nonsym 1-usesym 2-fastsym
   LCORR  =      T    Harris-Foulkes like correction to forces

   POTIM  = 0.5000    time-step for ionic-motion
   TEIN   =    0.0    initial temperature
   TEBEG  =    0.0;   TEEND  =   0.0 temperature during run
   SMASS  =  -3.00    Nose mass-parameter (am)
   estimated Nose-frequenzy (Omega)   =  0.10E-29 period in steps = 0.13E+47 mass=  -0.989E-27a.u.
   SCALEE = 1.0000    scale energy and forces
   NPACO  =    256;   APACO  = 10.0  distance and # of slots for P.C.
   PSTRESS=    0.0 pullay stress

  Mass of Ions in am
   POMASS =  92.91 95.94180.95183.85
  Ionic Valenz
   ZVAL   =  13.00 14.00 11.00 14.00
  Atomic Wigner-Seitz radii
   RWIGS  =  -1.00 -1.00 -1.00 -1.00
  virtual crystal weights 
   VCA    =   1.00  1.00  1.00  1.00
   NELECT =     216.0000    total number of electrons
   NUPDOWN=      -1.0000    fix difference up-down

 DOS related values:
   EMIN   =  10.00;   EMAX   =-10.00  energy-range for DOS
   EFERMI =   0.00
   ISMEAR =     0;   SIGMA  =   0.02  broadening in eV -4-tet -1-fermi 0-gaus

 Electronic relaxation 2 (details)
   IALGO  =     38    algorithm
   LDIAG  =      T    sub-space diagonalisation (order eigenvalues)
   LSUBROT=      F    optimize rotation matrix (better conditioning)
   TURBO    =      0    0=normal 1=particle mesh
   IRESTART =      0    0=no restart 2=restart with 2 vectors
   NREBOOT  =      0    no. of reboots
   NMIN     =      0    reboot dimension
   EREF     =   0.00    reference energy to select bands
   IMIX   =      4    mixing-type and parameters
     AMIX     =   0.40;   BMIX     =  1.00
     AMIX_MAG =   1.60;   BMIX_MAG =  1.00
     AMIN     =   0.10
     WC   =   100.;   INIMIX=   1;  MIXPRE=   1;  MAXMIX= -45

 Intra band minimization:
   WEIMIN = 0.0000     energy-eigenvalue tresh-hold
   EBREAK =  0.19E-10  absolut break condition
   DEPER  =   0.30     relativ break condition  

   TIME   =   0.40     timestep for ELM

  volume/ion in A,a.u.               =      17.81       120.16
  Fermi-wavevector in a.u.,A,eV,Ry     =   1.492795  2.820974 30.319727  2.228437
  Thomas-Fermi vector in A             =   2.605278
 
 Write flags
   LWAVE        =      F    write WAVECAR
   LDOWNSAMPLE  =      F    k-point downsampling of WAVECAR
   LCHARG       =      F    write CHGCAR
   LVTOT        =      F    write LOCPOT, total local potential
   LVHAR        =      F    write LOCPOT, Hartree potential only
   LELF         =      F    write electronic localiz. function (ELF)
   LORBIT       =      0    0 simple, 1 ext, 2 COOP (PROOUT), +10 PAW based schemes


 Dipole corrections
   LMONO  =      F    monopole corrections only (constant potential shift)
   LDIPOL =      F    correct potential (dipole corrections)
   IDIPOL =      0    1-x, 2-y, 3-z, 4-all directions 
   EPSILON=  1.0000000 bulk dielectric constant

 Core level calculations are selected ICORELEVEL =  1
 Exchange correlation treatment:
   GGA     =    PE    GGA type
   LEXCH   =     8    internal setting for exchange type
   LIBXC   =     F    Libxc                    
   VOSKOWN =     0    Vosko Wilk Nusair interpolation
   LHFCALC =     F    Hartree Fock is set to
   LHFONE  =     F    Hartree Fock one center treatment
   AEXX    =    0.0000 exact exchange contribution

 Linear response parameters
   LEPSILON=     F    determine dielectric tensor
   LRPA    =     F    only Hartree local field effects (RPA)
   LNABLA  =     F    use nabla operator in PAW spheres
   LVEL    =     F    velocity operator in full k-point grid
   CSHIFT  =0.1000    complex shift for real part using Kramers Kronig
   OMEGAMAX=  -1.0    maximum frequency
   DEG_THRESHOLD= 0.2000000E-02 threshold for treating states as degnerate
   RTIME   =   -0.100 relaxation time in fs
  (WPLASMAI=    0.000 imaginary part of plasma frequency in eV, 0.658/RTIME)
   DFIELD  = 0.0000000 0.0000000 0.0000000 field for delta impulse in time
 
  Optional k-point grid parameters
   LKPOINTS_OPT  =     F    use optional k-point grid
   KPOINTS_OPT_MODE=     1    mode for optional k-point grid
 
 Orbital magnetization related:
   ORBITALMAG=     F  switch on orbital magnetization
   LCHIMAG   =     F  perturbation theory with respect to B field
   DQ        =  0.001000  dq finite difference perturbation B field
   LLRAUG    =     F  two centre corrections for induced B field



--------------------------------------------------------------------------------------------------------


 Static calculation
 charge density and potential will be updated during run
 non-spin polarized calculation
 Variant of blocked Davidson
 Davidson routine will perform the subspace rotation
 perform sub-space diagonalisation
    after iterative eigenvector-optimisation
 modified Broyden-mixing scheme, WC =      100.0
 initial mixing is a Kerker type mixing with AMIX =  0.4000 and BMIX =      1.0000
 Hartree-type preconditioning will be used
 using additional bands           24
 reciprocal scheme for non local part
 use partial core corrections
 calculate Harris-corrections to forces 
   (improved forces if not selfconsistent)
 use gradient corrections 
 use of overlap-Matrix (Vanderbilt PP)
 Gauss-broadening in eV      SIGMA  =   0.02


--------------------------------------------------------------------------------------------------------


  energy-cutoff  :      250.00
  volume of cell :      284.89
      direct lattice vectors                 reciprocal lattice vectors
     6.580000000  0.000000000  0.000000000     0.151975684  0.000000000  0.000000000
     0.000000000  6.580000000  0.000000000     0.000000000  0.151975684  0.000000000
     0.000000000  0.000000000  6.580000000     0.000000000  0.000000000  0.151975684

  length of vectors
     6.580000000  6.580000000  6.580000000     0.151975684  0.151975684  0.151975684


 
 k-points in units of 2pi/SCALE and weight: K-Spacing Value to Generate K-Mesh: 0.03
   0.00000000  0.00000000  0.00000000       0.008
   0.03039514  0.00000000  0.00000000       0.016
   0.00000000  0.03039514  0.00000000       0.016
   0.00000000  0.00000000  0.03039514       0.016
   0.06079027  0.00000000  0.00000000       0.016
   0.00000000  0.06079027  0.00000000       0.016
   0.00000000  0.00000000  0.06079027       0.016
   0.03039514  0.03039514  0.00000000       0.016
   0.00000000  0.03039514  0.03039514       0.016
   0.03039514  0.00000000  0.03039514       0.016
  -0.03039514  0.03039514  0.00000000       0.016
  -0.03039514  0.00000000  0.03039514       0.016
   0.00000000 -0.03039514  0.03039514       0.016
   0.06079027  0.03039514  0.00000000       0.016
   0.00000000  0.06079027  0.03039514       0.016
   0.03039514  0.00000000  0.06079027       0.016
  -0.03039514  0.06079027  0.00000000       0.016
  -0.06079027  0.00000000  0.03039514       0.016
   0.00000000  0.03039514  0.06079027       0.016
   0.00000000 -0.06079027  0.03039514       0.016
  -0.03039514  0.00000000  0.06079027       0.016
   0.06079027  0.00000000  0.03039514       0.016
   0.00000000 -0.03039514  0.06079027       0.016
   0.06079027 -0.03039514  0.00000000       0.016
   0.03039514  0.06079027  0.00000000       0.016
   0.06079027  0.06079027  0.00000000       0.016
   0.00000000  0.06079027  0.06079027       0.016
   0.06079027  0.00000000  0.06079027       0.016
  -0.06079027  0.06079027  0.00000000       0.016
  -0.06079027  0.00000000  0.06079027       0.016
   0.00000000 -0.06079027  0.06079027       0.016
   0.03039514  0.03039514  0.03039514       0.016
  -0.03039514  0.03039514  0.03039514       0.016
  -0.03039514 -0.03039514  0.03039514       0.016
   0.03039514 -0.03039514  0.03039514       0.016
   0.06079027  0.03039514  0.03039514       0.016
   0.03039514  0.06079027  0.03039514       0.016
   0.03039514  0.03039514  0.06079027       0.016
  -0.03039514  0.06079027  0.03039514       0.016
  -0.06079027  0.03039514  0.03039514       0.016
  -0.03039514  0.03039514  0.06079027       0.016
  -0.06079027 -0.03039514  0.03039514       0.016
  -0.03039514 -0.06079027  0.03039514       0.016
  -0.03039514 -0.03039514  0.06079027       0.016
   0.03039514 -0.06079027  0.03039514       0.016
   0.06079027 -0.03039514  0.03039514       0.016
   0.03039514 -0.03039514  0.06079027       0.016
   0.06079027  0.06079027  0.03039514       0.016
   0.03039514  0.06079027  0.06079027       0.016
   0.06079027  0.03039514  0.06079027       0.016
  -0.06079027  0.06079027  0.03039514       0.016
  -0.06079027  0.03039514  0.06079027       0.016
  -0.03039514  0.06079027  0.06079027       0.016
  -0.06079027 -0.06079027  0.03039514       0.016
  -0.03039514 -0.06079027  0.06079027       0.016
  -0.06079027 -0.03039514  0.06079027       0.016
   0.06079027 -0.06079027  0.03039514       0.016
   0.06079027 -0.03039514  0.06079027       0.016
   0.03039514 -0.06079027  0.06079027       0.016
   0.06079027  0.06079027  0.06079027       0.016
  -0.06079027  0.06079027  0.06079027       0.016
  -0.06079027 -0.06079027  0.06079027       0.016
   0.06079027 -0.06079027  0.06079027       0.016
 
 k-points in reciprocal lattice and weights: K-Spacing Value to Generate K-Mesh: 0.03
   0.00000000  0.00000000  0.00000000       0.008
   0.20000000  0.00000000  0.00000000       0.016
   0.00000000  0.20000000  0.00000000       0.016
   0.00000000  0.00000000  0.20000000       0.016
   0.40000000  0.00000000  0.00000000       0.016
   0.00000000  0.40000000  0.00000000       0.016
   0.00000000  0.00000000  0.40000000       0.016
   0.20000000  0.20000000  0.00000000       0.016
   0.00000000  0.20000000  0.20000000       0.016
   0.20000000  0.00000000  0.20000000       0.016
  -0.20000000  0.20000000  0.00000000       0.016
  -0.20000000  0.00000000  0.20000000       0.016
   0.00000000 -0.20000000  0.20000000       0.016
   0.40000000  0.20000000  0.00000000       0.016
   0.00000000  0.40000000  0.20000000       0.016
   0.20000000  0.00000000  0.40000000       0.016
  -0.20000000  0.40000000  0.00000000       0.016
  -0.40000000  0.00000000  0.20000000       0.016
   0.00000000  0.20000000  0.40000000       0.016
   0.00000000 -0.40000000  0.20000000       0.016
  -0.20000000  0.00000000  0.40000000       0.016
   0.40000000  0.00000000  0.20000000       0.016
   0.00000000 -0.20000000  0.40000000       0.016
   0.40000000 -0.20000000  0.00000000       0.016
   0.20000000  0.40000000  0.00000000       0.016
   0.40000000  0.40000000  0.00000000       0.016
   0.00000000  0.40000000  0.40000000       0.016
   0.40000000  0.00000000  0.40000000       0.016
  -0.40000000  0.40000000  0.00000000       0.016
  -0.40000000  0.00000000  0.40000000       0.016
   0.00000000 -0.40000000  0.40000000       0.016
   0.20000000  0.20000000  0.20000000       0.016
  -0.20000000  0.20000000  0.20000000       0.016
  -0.20000000 -0.20000000  0.20000000       0.016
   0.20000000 -0.20000000  0.20000000       0.016
   0.40000000  0.20000000  0.20000000       0.016
   0.20000000  0.40000000  0.20000000       0.016
   0.20000000  0.20000000  0.40000000       0.016
  -0.20000000  0.40000000  0.20000000       0.016
  -0.40000000  0.20000000  0.20000000       0.016
  -0.20000000  0.20000000  0.40000000       0.016
  -0.40000000 -0.20000000  0.20000000       0.016
  -0.20000000 -0.40000000  0.20000000       0.016
  -0.20000000 -0.20000000  0.40000000       0.016
   0.20000000 -0.40000000  0.20000000       0.016
   0.40000000 -0.20000000  0.20000000       0.016
   0.20000000 -0.20000000  0.40000000       0.016
   0.40000000  0.40000000  0.20000000       0.016
   0.20000000  0.40000000  0.40000000       0.016
   0.40000000  0.20000000  0.40000000       0.016
  -0.40000000  0.40000000  0.20000000       0.016
  -0.40000000  0.20000000  0.40000000       0.016
  -0.20000000  0.40000000  0.40000000       0.016
  -0.40000000 -0.40000000  0.20000000       0.016
  -0.20000000 -0.40000000  0.40000000       0.016
  -0.40000000 -0.20000000  0.40000000       0.016
   0.40000000 -0.40000000  0.20000000       0.016
   0.40000000 -0.20000000  0.40000000       0.016
   0.20000000 -0.40000000  0.40000000       0.016
   0.40000000  0.40000000  0.40000000       0.016
  -0.40000000  0.40000000  0.40000000       0.016
  -0.40000000 -0.40000000  0.40000000       0.016
   0.40000000 -0.40000000  0.40000000       0.016
 
 position of ions in fractional coordinates (direct lattice) 
   0.00000000  0.00000000  0.00000000
   0.50000000  0.00000000  0.50000000
   0.25000000  0.75000000  0.25000000
   0.25000000  0.25000000  0.75000000
   0.75000000  0.25000000  0.75000000
   0.00000000  0.50000000  0.00000000
   0.75000000  0.75000000  0.75000000
   0.75000000  0.75000000  0.25000000
   0.00000000  0.00000000  0.50000000
   0.25000000  0.75000000  0.75000000
   0.50000000  0.50000000  0.00000000
   0.25000000  0.25000000  0.25000000
   0.50000000  0.00000000  0.00000000
   0.50000000  0.50000000  0.50000000
   0.00000000  0.50000000  0.50000000
   0.75000000  0.25000000  0.25000000
 
 position of ions in cartesian coordinates  (Angst):
   0.00000000  0.00000000  0.00000000
   3.29000000  0.00000000  3.29000000
   1.64500000  4.93500000  1.64500000
   1.64500000  1.64500000  4.93500000
   4.93500000  1.64500000  4.93500000
   0.00000000  3.29000000  0.00000000
   4.93500000  4.93500000  4.93500000
   4.93500000  4.93500000  1.64500000
   0.00000000  0.00000000  3.29000000
   1.64500000  4.93500000  4.93500000
   3.29000000  3.29000000  0.00000000
   1.64500000  1.64500000  1.64500000
   3.29000000  0.00000000  0.00000000
   3.29000000  3.29000000  3.29000000
   0.00000000  3.29000000  3.29000000
   4.93500000  1.64500000  1.64500000
 


--------------------------------------------------------------------------------------------------------


 k-point   1 :   0.0000 0.0000 0.0000  plane waves:    2517
 k-point   2 :   0.2000 0.0000 0.0000  plane waves:    2545
 k-point   3 :   0.0000 0.2000 0.0000  plane waves:    2545
 k-point   4 :   0.0000 0.0000 0.2000  plane waves:    2545
 k-point   5 :   0.4000 0.0000 0.0000  plane waves:    2569
 k-point   6 :   0.0000 0.4000 0.0000  plane waves:    2569
 k-point   7 :   0.0000 0.0000 0.4000  plane waves:    2569
 k-point   8 :   0.2000 0.2000 0.0000  plane waves:    2562
 k-point   9 :   0.0000 0.2000 0.2000  plane waves:    2562
 k-point  10 :   0.2000 0.0000 0.2000  plane waves:    2562
 k-point  11 :  -0.2000 0.2000 0.0000  plane waves:    2562
 k-point  12 :  -0.2000 0.0000 0.2000  plane waves:    2562
 k-point  13 :   0.0000-0.2000 0.2000  plane waves:    2562
 k-point  14 :   0.4000 0.2000 0.0000  plane waves:    2566
 k-point  15 :   0.0000 0.4000 0.2000  plane waves:    2566
 k-point  16 :   0.2000 0.0000 0.4000  plane waves:    2566
 k-point  17 :  -0.2000 0.4000 0.0000  plane waves:    2566
 k-point  18 :  -0.4000 0.0000 0.2000  plane waves:    2566
 k-point  19 :   0.0000 0.2000 0.4000  plane waves:    2566
 k-point  20 :   0.0000-0.4000 0.2000  plane waves:    2566
 k-point  21 :  -0.2000 0.0000 0.4000  plane waves:    2566
 k-point  22 :   0.4000 0.0000 0.2000  plane waves:    2566
 k-point  23 :   0.0000-0.2000 0.4000  plane waves:    2566
 k-point  24 :   0.4000-0.2000 0.0000  plane waves:    2566
 k-point  25 :   0.2000 0.4000 0.0000  plane waves:    2566
 k-point  26 :   0.4000 0.4000 0.0000  plane waves:    2570
 k-point  27 :   0.0000 0.4000 0.4000  plane waves:    2570
 k-point  28 :   0.4000 0.0000 0.4000  plane waves:    2570
 k-point  29 :  -0.4000 0.4000 0.0000  plane waves:    2570
 k-point  30 :  -0.4000 0.0000 0.4000  plane waves:    2570
 k-point  31 :   0.0000-0.4000 0.4000  plane waves:    2570
 k-point  32 :   0.2000 0.2000 0.2000  plane waves:    2572
 k-point  33 :  -0.2000 0.2000 0.2000  plane waves:    2572
 k-point  34 :  -0.2000-0.2000 0.2000  plane waves:    2572
 k-point  35 :   0.2000-0.2000 0.2000  plane waves:    2572
 k-point  36 :   0.4000 0.2000 0.2000  plane waves:    2546
 k-point  37 :   0.2000 0.4000 0.2000  plane waves:    2546
 k-point  38 :   0.2000 0.2000 0.4000  plane waves:    2546
 k-point  39 :  -0.2000 0.4000 0.2000  plane waves:    2546
 k-point  40 :  -0.4000 0.2000 0.2000  plane waves:    2546
 k-point  41 :  -0.2000 0.2000 0.4000  plane waves:    2546
 k-point  42 :  -0.4000-0.2000 0.2000  plane waves:    2546
 k-point  43 :  -0.2000-0.4000 0.2000  plane waves:    2546
 k-point  44 :  -0.2000-0.2000 0.4000  plane waves:    2546
 k-point  45 :   0.2000-0.4000 0.2000  plane waves:    2546
 k-point  46 :   0.4000-0.2000 0.2000  plane waves:    2546
 k-point  47 :   0.2000-0.2000 0.4000  plane waves:    2546
 k-point  48 :   0.4000 0.4000 0.2000  plane waves:    2549
 k-point  49 :   0.2000 0.4000 0.4000  plane waves:    2549
 k-point  50 :   0.4000 0.2000 0.4000  plane waves:    2549
 k-point  51 :  -0.4000 0.4000 0.2000  plane waves:    2549
 k-point  52 :  -0.4000 0.2000 0.4000  plane waves:    2549
 k-point  53 :  -0.2000 0.4000 0.4000  plane waves:    2549
 k-point  54 :  -0.4000-0.4000 0.2000  plane waves:    2549
 k-point  55 :  -0.2000-0.4000 0.4000  plane waves:    2549
 k-point  56 :  -0.4000-0.2000 0.4000  plane waves:    2549
 k-point  57 :   0.4000-0.4000 0.2000  plane waves:    2549
 k-point  58 :   0.4000-0.2000 0.4000  plane waves:    2549
 k-point  59 :   0.2000-0.4000 0.4000  plane waves:    2549
 k-point  60 :   0.4000 0.4000 0.4000  plane waves:    2533
 k-point  61 :  -0.4000 0.4000 0.4000  plane waves:    2533
 k-point  62 :  -0.4000-0.4000 0.4000  plane waves:    2533
 k-point  63 :   0.4000-0.4000 0.4000  plane waves:    2533

 maximum and minimum number of plane-waves per node :       235      194

 maximum number of plane-waves:      2572
 maximum index in each direction: 
   IXMAX=    8   IYMAX=    8   IZMAX=    8
   IXMIN=   -8   IYMIN=   -8   IZMIN=   -8


 parallel 3D FFT for wavefunctions:
    minimum data exchange during FFTs selected (reduces bandwidth)
 parallel 3D FFT for charge:
    minimum data exchange during FFTs selected (reduces bandwidth)


 total amount of memory used by VASP MPI-rank0    48519. kBytes
=======================================================================

   base      :      30000. kBytes
   nonl-proj :       8332. kBytes
   fftplans  :        456. kBytes
   grid      :        919. kBytes
   one-center:         31. kBytes
   wavefun   :       8781. kBytes
 
     INWAV:  cpu time      0.0000: real time      0.0000
 Broyden mixing: mesh for mixing (old mesh)
   NGX = 17   NGY = 17   NGZ = 17
  (NGX  = 72   NGY  = 72   NGZ  = 72)
  gives a total of   4913 points

 initial charge density was supplied:
 charge density of overlapping atoms calculated
 number of electron     216.0000000 magnetization 
 keeping initial charge density in first step


--------------------------------------------------------------------------------------------------------


 Maximum index for augmentation-charges          517 (set IRDMAX)


--------------------------------------------------------------------------------------------------------


 First call to EWALD:  gamma=   0.269
 Maximum number of real-space cells 3x 3x 3
 Maximum number of reciprocal cells 3x 3x 3

    FEWALD:  cpu time      0.0013: real time      0.0013


--------------------------------------- Iteration      1(   1)  ---------------------------------------


    POTLOK:  cpu time      0.0061: real time      0.0122
    SETDIJ:  cpu time      0.0024: real time      0.0025
     EDDAV:  cpu time      3.3430: real time      3.3585
       DOS:  cpu time      0.0050: real time      0.0051
    --------------------------------------------
      LOOP:  cpu time      3.3566: real time      3.3784

 eigenvalue-minimisations  : 17280
 total energy-change (2. order) : 0.2034648E+04  (-0.8741517E+04)
 number of electron     216.0000000 magnetization 
 augmentation part      216.0000000 magnetization 

 Free energy of the ion-electron system (eV)
  ---------------------------------------------------
  alpha Z        PSCENC =      1807.18283688
  Ewald energy   TEWEN  =    -23269.23903846
  -Hartree energ DENC   =     -4565.14526796
  -exchange      EXHF   =         0.00000000
  -V(xc)+E(xc)   XCENC  =       919.52702472
  PAW double counting   =     21945.90860285   -21636.85160080
  entropy T*S    EENTRO =        -0.00143077
  eigenvalues    EBANDS =      -730.49461181
  atomic energy  EATOM  =     27563.76120450
  Solvation  Ediel_sol  =         0.00000000
  ---------------------------------------------------
  free energy    TOTEN  =      2034.64771916 eV

  energy without entropy =     2034.64914993  energy(sigma->0) =     2034.64843455


--------------------------------------------------------------------------------------------------------




--------------------------------------- Iteration      1(   2)  ---------------------------------------


     EDDAV:  cpu time      3.3464: real time      3.3629
       DOS:  cpu time      0.0051: real time      0.0051
    --------------------------------------------
      LOOP:  cpu time      3.3515: real time      3.3680

 eigenvalue-minimisations  : 17416
 total energy-change (2. order) :-0.2075588E+04  (-0.2008019E+04)
 number of electron     216.0000000 magnetization 
 augmentation part      216.0000000 magnetization 

 Free energy of the ion-electron system (eV)
  ---------------------------------------------------
  alpha Z        PSCENC =      1807.18283688
  Ewald energy   TEWEN  =    -23269.23903846
  -Hartree energ DENC   =     -4565.14526796
  -exchange      EXHF   =         0.00000000
  -V(xc)+E(xc)   XCENC  =       919.52702472
  PAW double counting   =     21945.90860285   -21636.85160080
  entropy T*S    EENTRO =        -0.00239679
  eigenvalues    EBANDS =     -2806.08182092
  atomic energy  EATOM  =     27563.76120450
  Solvation  Ediel_sol  =         0.00000000
  ---------------------------------------------------
  free energy    TOTEN  =       -40.94045597 eV

  energy without entropy =      -40.93805918  energy(sigma->0) =      -40.93925757


--------------------------------------------------------------------------------------------------------




--------------------------------------- Iteration      1(   3)  ---------------------------------------


     EDDAV:  cpu time      4.2584: real time      4.2769
       DOS:  cpu time      0.0045: real time      0.0045
    --------------------------------------------
      LOOP:  cpu time      4.2628: real time      4.2814

 eigenvalue-minimisations  : 23992
 total energy-change (2. order) :-0.1455442E+03  (-0.1380044E+03)
 number of electron     216.0000000 magnetization 
 augmentation part      216.0000000 magnetization 

 Free energy of the ion-electron system (eV)
  ---------------------------------------------------
  alpha Z        PSCENC =      1807.18283688
  Ewald energy   TEWEN  =    -23269.23903846
  -Hartree energ DENC   =     -4565.14526796
  -exchange      EXHF   =         0.00000000
  -V(xc)+E(xc)   XCENC  =       919.52702472
  PAW double counting   =     21945.90860285   -21636.85160080
  entropy T*S    EENTRO =        -0.00184858
  eigenvalues    EBANDS =     -2951.62654994
  atomic energy  EATOM  =     27563.76120450
  Solvation  Ediel_sol  =         0.00000000
  ---------------------------------------------------
  free energy    TOTEN  =      -186.48463678 eV

  energy without entropy =     -186.48278820  energy(sigma->0) =     -186.48371249


--------------------------------------------------------------------------------------------------------




--------------------------------------- Iteration      1(   4)  ---------------------------------------


     EDDAV:  cpu time      4.2312: real time      4.2496
       DOS:  cpu time      0.0049: real time      0.0050
    --------------------------------------------
      LOOP:  cpu time      4.2361: real time      4.2546

 eigenvalue-minimisations  : 24080
 total energy-change (2. order) :-0.7383567E+01  (-0.7209348E+01)
 number of electron     216.0000000 magnetization 
 augmentation part      216.0000000 magnetization 

 Free energy of the ion-electron system (eV)
  ---------------------------------------------------
  alpha Z        PSCENC =      1807.18283688
  Ewald energy   TEWEN  =    -23269.23903846
  -Hartree energ DENC   =     -4565.14526796
  -exchange      EXHF   =         0.00000000
  -V(xc)+E(xc)   XCENC  =       919.52702472
  PAW double counting   =     21945.90860285   -21636.85160080
  entropy T*S    EENTRO =        -0.00275323
  eigenvalues    EBANDS =     -2959.00921184
  atomic energy  EATOM  =     27563.76120450
  Solvation  Ediel_sol  =         0.00000000
  ---------------------------------------------------
  free energy    TOTEN  =      -193.86820332 eV

  energy without entropy =     -193.86545010  energy(sigma->0) =     -193.86682671


--------------------------------------------------------------------------------------------------------




--------------------------------------- Iteration      1(   5)  ---------------------------------------


     EDDAV:  cpu time      4.4503: real time      4.4718
       DOS:  cpu time      0.0051: real time      0.0051
    CHARGE:  cpu time      0.0892: real time      0.0895
    MIXING:  cpu time      0.0002: real time      0.0002
    --------------------------------------------
      LOOP:  cpu time      4.5448: real time      4.5666

 eigenvalue-minimisations  : 25580
 total energy-change (2. order) :-0.4599164E+00  (-0.4560933E+00)
 number of electron     215.9999769 magnetization 
 augmentation part       43.1687327 magnetization 

 Broyden mixing:
  rms(total) = 0.51191E+01    rms(broyden)= 0.51175E+01
  rms(prec ) = 0.57397E+01
  weight for this iteration     100.00

 Free energy of the ion-electron system (eV)
  ---------------------------------------------------
  alpha Z        PSCENC =      1807.18283688
  Ewald energy   TEWEN  =    -23269.23903846
  -Hartree energ DENC   =     -4565.14526796
  -exchange      EXHF   =         0.00000000
  -V(xc)+E(xc)   XCENC  =       919.52702472
  PAW double counting   =     21945.90860285   -21636.85160080
  entropy T*S    EENTRO =        -0.00322389
  eigenvalues    EBANDS =     -2959.46865753
  atomic energy  EATOM  =     27563.76120450
  Solvation  Ediel_sol  =         0.00000000
  ---------------------------------------------------
  free energy    TOTEN  =      -194.32811968 eV

  energy without entropy =     -194.32489579  energy(sigma->0) =     -194.32650773


--------------------------------------------------------------------------------------------------------




--------------------------------------- Iteration      1(   6)  ---------------------------------------


    POTLOK:  cpu time      0.0044: real time      0.0046
    SETDIJ:  cpu time      0.0018: real time      0.0018
     EDDAV:  cpu time      3.5794: real time      3.5947
       DOS:  cpu time      0.0050: real time      0.0050
    CHARGE:  cpu time      0.0899: real time      0.0902
    MIXING:  cpu time      0.0002: real time      0.0002
    --------------------------------------------
      LOOP:  cpu time      3.6808: real time      3.6966

 eigenvalue-minimisations  : 19184
 total energy-change (2. order) : 0.9214113E+01  (-0.2410646E+01)
 number of electron     215.9999754 magnetization 
 augmentation part       45.1541285 magnetization 

 Broyden mixing:
  rms(total) = 0.16639E+01    rms(broyden)= 0.16635E+01
  rms(prec ) = 0.20534E+01
  weight for this iteration     100.00

 eigenvalues of (default mixing * dielectric matrix)
  average eigenvalue GAMMA=   1.3506
  1.3506

 Free energy of the ion-electron system (eV)
  ---------------------------------------------------
  alpha Z        PSCENC =      1807.18283688
  Ewald energy   TEWEN  =    -23269.23903846
  -Hartree energ DENC   =     -4304.47002181
  -exchange      EXHF   =         0.00000000
  -V(xc)+E(xc)   XCENC  =       906.61215836
  PAW double counting   =     24560.27187254   -24286.37668102
  entropy T*S    EENTRO =        -0.00191308
  eigenvalues    EBANDS =     -3162.85442509
  atomic energy  EATOM  =     27563.76120450
  Solvation  Ediel_sol  =         0.00000000
  ---------------------------------------------------
  free energy    TOTEN  =      -185.11400718 eV

  energy without entropy =     -185.11209410  energy(sigma->0) =     -185.11305064


--------------------------------------------------------------------------------------------------------




--------------------------------------- Iteration      1(   7)  ---------------------------------------


    POTLOK:  cpu time      0.0039: real time      0.0041
    SETDIJ:  cpu time      0.0016: real time      0.0016
     EDDAV:  cpu time      4.1963: real time      4.2145
       DOS:  cpu time      0.0046: real time      0.0046
    CHARGE:  cpu time      0.0895: real time      0.0898
    MIXING:  cpu time      0.0003: real time      0.0003
    --------------------------------------------
      LOOP:  cpu time      4.2961: real time      4.3148

 eigenvalue-minimisations  : 23812
 total energy-change (2. order) : 0.9829154E+00  (-0.9201182E+00)
 number of electron     215.9999759 magnetization 
 augmentation part       45.3917277 magnetization 

 Broyden mixing:
  rms(total) = 0.70016E+00    rms(broyden)= 0.69997E+00
  rms(prec ) = 0.14667E+01
  weight for this iteration     100.00

 eigenvalues of (default mixing * dielectric matrix)
  average eigenvalue GAMMA=   1.1199
  1.4899  0.7500

 Free energy of the ion-electron system (eV)
  ---------------------------------------------------
  alpha Z        PSCENC =      1807.18283688
  Ewald energy   TEWEN  =    -23269.23903846
  -Hartree energ DENC   =     -4213.94279876
  -exchange      EXHF   =         0.00000000
  -V(xc)+E(xc)   XCENC  =       901.77276036
  PAW double counting   =     26063.18608602   -25804.11111446
  entropy T*S    EENTRO =        -0.00172225
  eigenvalues    EBANDS =     -3232.73930563
  atomic energy  EATOM  =     27563.76120450
  Solvation  Ediel_sol  =         0.00000000
  ---------------------------------------------------
  free energy    TOTEN  =      -184.13109180 eV

  energy without entropy =     -184.12936955  energy(sigma->0) =     -184.13023067


--------------------------------------------------------------------------------------------------------




--------------------------------------- Iteration      1(   8)  ---------------------------------------


    POTLOK:  cpu time      0.0045: real time      0.0047
    SETDIJ:  cpu time      0.0017: real time      0.0017
     EDDAV:  cpu time      3.8323: real time      3.8486
       DOS:  cpu time      0.0049: real time      0.0049
    CHARGE:  cpu time      0.0894: real time      0.0897
    MIXING:  cpu time      0.0003: real time      0.0003
    --------------------------------------------
      LOOP:  cpu time      3.9331: real time      3.9499

 eigenvalue-minimisations  : 21200
 total energy-change (2. order) : 0.7398920E+00  (-0.4133465E+00)
 number of electron     215.9999753 magnetization 
 augmentation part       45.7578473 magnetization 

 Broyden mixing:
  rms(total) = 0.37240E+00    rms(broyden)= 0.37220E+00
  rms(prec ) = 0.56045E+00
  weight for this iteration     100.00

 eigenvalues of (default mixing * dielectric matrix)
  average eigenvalue GAMMA=   1.1365
  1.6067  1.3270  0.4758

 Free energy of the ion-electron system (eV)
  ---------------------------------------------------
  alpha Z        PSCENC =      1807.18283688
  Ewald energy   TEWEN  =    -23269.23903846
  -Hartree energ DENC   =     -4184.35452962
  -exchange      EXHF   =         0.00000000
  -V(xc)+E(xc)   XCENC  =       900.44149140
  PAW double counting   =     26394.42895272   -26139.65046094
  entropy T*S    EENTRO =        -0.00145059
  eigenvalues    EBANDS =     -3255.96020564
  atomic energy  EATOM  =     27563.76120450
  Solvation  Ediel_sol  =         0.00000000
  ---------------------------------------------------
  free energy    TOTEN  =      -183.39119975 eV

  energy without entropy =     -183.38974916  energy(sigma->0) =     -183.39047445


--------------------------------------------------------------------------------------------------------




--------------------------------------- Iteration      1(   9)  ---------------------------------------


    POTLOK:  cpu time      0.0044: real time      0.0046
    SETDIJ:  cpu time      0.0017: real time      0.0017
     EDDAV:  cpu time    103.4737: real time    104.0612
       DOS:  cpu time      0.0049: real time      0.0049
    CHARGE:  cpu time      0.0862: real time      0.0865
    MIXING:  cpu time      0.0003: real time      0.0003
    --------------------------------------------
      LOOP:  cpu time    103.5712: real time    104.1592

 eigenvalue-minimisations  : 22612
 total energy-change (2. order) : 0.2557049E-01  (-0.7516879E-01)
 number of electron     215.9999754 magnetization 
 augmentation part       45.8110052 magnetization 

 Broyden mixing:
  rms(total) = 0.26504E+00    rms(broyden)= 0.26501E+00
  rms(prec ) = 0.38651E+00
  weight for this iteration     100.00

 eigenvalues of (default mixing * dielectric matrix)
  average eigenvalue GAMMA=   1.1823
  2.0181  1.6247  0.6839  0.4027

 Free energy of the ion-electron system (eV)
  ---------------------------------------------------
  alpha Z        PSCENC =      1807.18283688
  Ewald energy   TEWEN  =    -23269.23903846
  -Hartree energ DENC   =     -4179.04491596
  -exchange      EXHF   =         0.00000000
  -V(xc)+E(xc)   XCENC  =       900.18038183
  PAW double counting   =     26580.87351614   -26326.92467231
  entropy T*S    EENTRO =        -0.00225887
  eigenvalues    EBANDS =     -3260.15268301
  atomic energy  EATOM  =     27563.76120450
  Solvation  Ediel_sol  =         0.00000000
  ---------------------------------------------------
  free energy    TOTEN  =      -183.36562926 eV

  energy without entropy =     -183.36337038  energy(sigma->0) =     -183.36449982


--------------------------------------------------------------------------------------------------------




--------------------------------------- Iteration      1(  10)  ---------------------------------------


    POTLOK:  cpu time      0.0040: real time      0.0041
    SETDIJ:  cpu time      0.0017: real time      0.0017
     EDDAV:  cpu time      3.9789: real time      3.9957
       DOS:  cpu time      0.0049: real time      0.0049
    CHARGE:  cpu time      0.0890: real time      0.0893
    MIXING:  cpu time      0.0003: real time      0.0003
    --------------------------------------------
      LOOP:  cpu time      4.0788: real time      4.0961

 eigenvalue-minimisations  : 22144
 total energy-change (2. order) : 0.2700145E-01  (-0.2832584E-01)
 number of electron     215.9999754 magnetization 
 augmentation part       45.7417199 magnetization 

 Broyden mixing:
  rms(total) = 0.11380E+00    rms(broyden)= 0.11376E+00
  rms(prec ) = 0.21223E+00
  weight for this iteration     100.00

 eigenvalues of (default mixing * dielectric matrix)
  average eigenvalue GAMMA=   1.1389
  2.3131  1.6673  0.8775  0.4182  0.4182

 Free energy of the ion-electron system (eV)
  ---------------------------------------------------
  alpha Z        PSCENC =      1807.18283688
  Ewald energy   TEWEN  =    -23269.23903846
  -Hartree energ DENC   =     -4180.19451070
  -exchange      EXHF   =         0.00000000
  -V(xc)+E(xc)   XCENC  =       900.20738984
  PAW double counting   =     26689.97577777   -26435.89165444
  entropy T*S    EENTRO =        -0.00171772
  eigenvalues    EBANDS =     -3259.13891548
  atomic energy  EATOM  =     27563.76120450
  Solvation  Ediel_sol  =         0.00000000
  ---------------------------------------------------
  free energy    TOTEN  =      -183.33862781 eV

  energy without entropy =     -183.33691009  energy(sigma->0) =     -183.33776895


--------------------------------------------------------------------------------------------------------




--------------------------------------- Iteration      1(  11)  ---------------------------------------


    POTLOK:  cpu time      0.0045: real time      0.0047
    SETDIJ:  cpu time      0.0017: real time      0.0017
     EDDAV:  cpu time      3.9805: real time      3.9977
       DOS:  cpu time      0.0050: real time      0.0050
    CHARGE:  cpu time      0.0902: real time      0.0905
    MIXING:  cpu time      0.0003: real time      0.0003
    --------------------------------------------
      LOOP:  cpu time      4.0822: real time      4.0999

 eigenvalue-minimisations  : 22096
 total energy-change (2. order) : 0.8277045E-02  (-0.9014848E-02)
 number of electron     215.9999754 magnetization 
 augmentation part       45.7329889 magnetization 

 Broyden mixing:
  rms(total) = 0.45554E-01    rms(broyden)= 0.45496E-01
  rms(prec ) = 0.10180E+00
  weight for this iteration     100.00

 eigenvalues of (default mixing * dielectric matrix)
  average eigenvalue GAMMA=   1.0535
  2.3974  1.6616  0.9289  0.4823  0.4823  0.3684

 Free energy of the ion-electron system (eV)
  ---------------------------------------------------
  alpha Z        PSCENC =      1807.18283688
  Ewald energy   TEWEN  =    -23269.23903846
  -Hartree energ DENC   =     -4180.40773682
  -exchange      EXHF   =         0.00000000
  -V(xc)+E(xc)   XCENC  =       900.21697737
  PAW double counting   =     26713.77404743   -26459.54309567
  entropy T*S    EENTRO =        -0.00177996
  eigenvalues    EBANDS =     -3259.07376605
  atomic energy  EATOM  =     27563.76120450
  Solvation  Ediel_sol  =         0.00000000
  ---------------------------------------------------
  free energy    TOTEN  =      -183.33035076 eV

  energy without entropy =     -183.32857081  energy(sigma->0) =     -183.32946079


--------------------------------------------------------------------------------------------------------




--------------------------------------- Iteration      1(  12)  ---------------------------------------


    POTLOK:  cpu time      0.0045: real time      0.0047
    SETDIJ:  cpu time      0.0017: real time      0.0017
     EDDAV:  cpu time      3.9780: real time      3.9948
       DOS:  cpu time      0.0048: real time      0.0048
    CHARGE:  cpu time      0.0890: real time      0.0893
    MIXING:  cpu time      0.0003: real time      0.0003
    --------------------------------------------
[...]
     41     -25.0401      2.00000
     42     -25.0330      2.00000
     43     -25.0287      2.00000
     44     -25.0130      2.00000
     45     -24.9438      2.00000
     46     -24.9386      2.00000
     47     -24.9123      2.00000
     48     -24.8819      2.00000
     49     -24.8662      2.00000
     50     -24.8397      2.00000
     51     -24.4453      2.00000
     52     -24.2934      2.00000
     53     -24.2808      2.00000
     54     -24.2258      2.00000
     55     -24.2074      2.00000
     56     -24.0519      2.00000
     57     -20.9800      2.00000
     58     -20.9723      2.00000
     59     -20.9616      2.00000
     60     -20.9528      2.00000
     61     -20.9512      2.00000
     62     -20.9355      2.00000
     63       4.2455      2.00000
     64       4.8758      2.00000
     65       5.1109      2.00000
     66       5.2157      2.00000
     67       5.6721      2.00000
     68       5.8092      2.00000
     69       6.0117      2.00000
     70       6.5650      2.00000
     71       6.7569      2.00000
     72       6.7873      2.00000
     73       6.8258      2.00000
     74       6.8519      2.00000
     75       6.8913      2.00000
     76       6.9713      2.00000
     77       7.0287      2.00000
     78       7.0389      2.00000
     79       7.1034      2.00000
     80       7.1246      2.00000
     81       7.1751      2.00000
     82       7.2005      2.00000
     83       7.4999      2.00000
     84       7.5021      2.00000
     85       7.5635      2.00000
     86       7.6340      2.00000
     87       7.6552      2.00000
     88       7.7087      2.00000
     89       7.7194      2.00000
     90       7.7367      2.00000
     91       7.7871      2.00000
     92       7.8015      2.00000
     93       7.8453      2.00000
     94       7.8670      2.00000
     95       7.8843      2.00000
     96       7.9133      2.00000
     97       7.9311      2.00000
     98       7.9401      2.00000
     99       7.9619      2.00000
    100       7.9825      2.00000
    101       8.0233      2.00000
    102       8.0849      2.00000
    103       8.1367      2.00000
    104       8.1713      2.00000
    105       8.1947      2.00000
    106       8.2244      2.00000
    107       8.2649      2.00000
    108       8.3369      2.00000
    109       8.3898      2.00000
    110       8.7556      2.00000
    111      11.3383      0.00000
    112      11.3753      0.00000
    113      11.4058      0.00000
    114      11.4672      0.00000
    115      11.5557      0.00000
    116      11.5871      0.00000
    117      11.6022      0.00000
    118      11.6823      0.00000
    119      11.6931      0.00000
    120      11.7621      0.00000
    121      11.7847      0.00000
    122      11.8106      0.00000
    123      11.8451      0.00000
    124      11.9234      0.00000
    125      11.9859      0.00000
    126      12.0179      0.00000
    127      12.0405      0.00000
    128      12.1255      0.00000
    129      12.1631      0.00000
    130      12.3483      0.00000
    131      12.3601      0.00000
    132      12.4398      0.00000

 k-point    63 :       0.4000   -0.4000    0.4000
  band No.  band energies     occupation 
      1     -64.2118      2.00000
      2     -64.1946      2.00000
      3     -64.1589      2.00000
      4     -64.0409      2.00000
      5     -51.1355      2.00000
      6     -51.1100      2.00000
      7     -50.9663      2.00000
      8     -50.9641      2.00000
      9     -50.9614      2.00000
     10     -50.9586      2.00000
     11     -50.9493      2.00000
     12     -50.9415      2.00000
     13     -44.9045      2.00000
     14     -44.8811      2.00000
     15     -28.5313      2.00000
     16     -28.4658      2.00000
     17     -28.4076      2.00000
     18     -28.3998      2.00000
     19     -28.3913      2.00000
     20     -28.3713      2.00000
     21     -28.3640      2.00000
     22     -28.3553      2.00000
     23     -28.3322      2.00000
     24     -28.2423      2.00000
     25     -28.1561      2.00000
     26     -28.0696      2.00000
     27     -25.4168      2.00000
     28     -25.3924      2.00000
     29     -25.3771      2.00000
     30     -25.3410      2.00000
     31     -25.3242      2.00000
     32     -25.3040      2.00000
     33     -25.1512      2.00000
     34     -25.1172      2.00000
     35     -25.0853      2.00000
     36     -25.0812      2.00000
     37     -25.0752      2.00000
     38     -25.0642      2.00000
     39     -25.0580      2.00000
     40     -25.0476      2.00000
     41     -25.0401      2.00000
     42     -25.0346      2.00000
     43     -25.0272      2.00000
     44     -25.0133      2.00000
     45     -24.9505      2.00000
     46     -24.9388      2.00000
     47     -24.9116      2.00000
     48     -24.8819      2.00000
     49     -24.8655      2.00000
     50     -24.8398      2.00000
     51     -24.4337      2.00000
     52     -24.2939      2.00000
     53     -24.2810      2.00000
     54     -24.2263      2.00000
     55     -24.2076      2.00000
     56     -24.0564      2.00000
     57     -20.9799      2.00000
     58     -20.9724      2.00000
     59     -20.9611      2.00000
     60     -20.9527      2.00000
     61     -20.9510      2.00000
     62     -20.9362      2.00000
     63       4.2498      2.00000
     64       4.8528      2.00000
     65       5.1043      2.00000
     66       5.2505      2.00000
     67       5.6551      2.00000
     68       5.8124      2.00000
     69       6.0244      2.00000
     70       6.5558      2.00000
     71       6.7662      2.00000
     72       6.7839      2.00000
     73       6.8221      2.00000
     74       6.8512      2.00000
     75       6.8915      2.00000
     76       6.9697      2.00000
     77       7.0139      2.00000
     78       7.0570      2.00000
     79       7.1076      2.00000
     80       7.1370      2.00000
     81       7.1695      2.00000
     82       7.1907      2.00000
     83       7.4995      2.00000
     84       7.5035      2.00000
     85       7.5664      2.00000
     86       7.6273      2.00000
     87       7.6534      2.00000
     88       7.7067      2.00000
     89       7.7165      2.00000
     90       7.7386      2.00000
     91       7.7849      2.00000
     92       7.8056      2.00000
     93       7.8332      2.00000
     94       7.8569      2.00000
     95       7.8978      2.00000
     96       7.9061      2.00000
     97       7.9242      2.00000
     98       7.9514      2.00000
     99       7.9705      2.00000
    100       7.9866      2.00000
    101       8.0223      2.00000
    102       8.0728      2.00000
    103       8.1444      2.00000
    104       8.1640      2.00000
    105       8.1969      2.00000
    106       8.2350      2.00000
    107       8.2598      2.00000
    108       8.3412      2.00000
    109       8.3838      2.00000
    110       8.7640      2.00000
    111      11.3449      0.00000
    112      11.3727      0.00000
    113      11.4092      0.00000
    114      11.4658      0.00000
    115      11.5566      0.00000
    116      11.5842      0.00000
    117      11.6002      0.00000
    118      11.6760      0.00000
    119      11.6941      0.00000
    120      11.7716      0.00000
    121      11.7912      0.00000
    122      11.8081      0.00000
    123      11.8442      0.00000
    124      11.9139      0.00000
    125      11.9923      0.00000
    126      12.0207      0.00000
    127      12.0405      0.00000
    128      12.1148      0.00000
    129      12.1537      0.00000
    130      12.3574      0.00000
    131      12.3855      0.00000
    132      12.4447      0.00000


--------------------------------------------------------------------------------------------------------


 soft charge-density along one line, spin component           1
         0         1         2         3         4         5         6         7         8         9
 total charge-density along one line
 
 pseudopotential strength for first ion, spin component:           1
  5.792 -20.359  -0.002  -0.002  -0.001   0.004   0.004   0.002
-20.359   9.269  -0.003  -0.003  -0.001   0.000   0.000   0.000
 -0.002  -0.003  -9.788   0.003   0.001   6.039  -0.004  -0.001
 -0.002  -0.003   0.003  -9.787   0.001  -0.004   6.038  -0.001
 -0.001  -0.001   0.001   0.001  -9.789  -0.001  -0.001   6.040
  0.004   0.000   6.039  -0.004  -0.001   7.915   0.002   0.001
  0.004   0.000  -0.004   6.038  -0.001   0.002   7.915   0.001
  0.002   0.000  -0.001  -0.001   6.040   0.001   0.001   7.914
  0.001   0.000  -0.001  -0.000  -0.002   0.001   0.000   0.002
  0.002   0.001  -0.002  -0.002  -0.000   0.002   0.002   0.000
  0.000   0.000   0.001  -0.001   0.000  -0.001   0.002  -0.001
  0.001   0.000  -0.000  -0.001  -0.002   0.000   0.001   0.002
 -0.001  -0.000   0.001  -0.000  -0.001  -0.002   0.000   0.001
  0.001   0.000  -0.001  -0.000  -0.002   0.002   0.000   0.003
  0.003   0.001  -0.002  -0.002  -0.000   0.003   0.003   0.000
  0.001   0.000   0.001  -0.002   0.001  -0.001   0.002  -0.001
  0.001   0.000  -0.000  -0.001  -0.002   0.000   0.002   0.003
 -0.001  -0.000   0.002  -0.000  -0.001  -0.002   0.000   0.001
 total augmentation occupancy for first ion, spin component:           1
  1.995  -0.050  -0.000  -0.000   0.000  -0.000  -0.000   0.000   0.004   0.006   0.001   0.004  -0.002  -0.003  -0.006  -0.001
 -0.050   1.298   0.000  -0.000   0.001   0.001   0.001   0.001   0.007   0.027   0.004   0.007  -0.005  -0.001  -0.014   0.000
 -0.000   0.000   1.996  -0.000  -0.000  -0.034   0.000   0.001   0.003  -0.000   0.002   0.004   0.004  -0.002   0.000  -0.001
 -0.000  -0.000  -0.000   1.996  -0.000   0.000  -0.034   0.001   0.004  -0.000  -0.004   0.003   0.000  -0.002  -0.000   0.003
  0.000   0.001  -0.000  -0.000   1.996   0.001   0.001  -0.034  -0.000   0.004   0.001  -0.000  -0.001   0.000  -0.002  -0.000
 -0.000   0.001  -0.034   0.000   0.001   0.069  -0.000  -0.001  -0.001   0.008  -0.004  -0.005  -0.006   0.001  -0.004   0.002
 -0.000   0.001   0.000  -0.034   0.001  -0.000   0.069  -0.001  -0.005   0.007   0.007  -0.002   0.000   0.002  -0.004  -0.003
  0.000   0.001   0.001   0.001  -0.034  -0.001  -0.001   0.070   0.008  -0.005  -0.002   0.008   0.004  -0.004   0.002   0.001
  0.004   0.007   0.003   0.004  -0.000  -0.001  -0.005   0.008   3.172   0.001  -0.025   0.068  -0.000  -1.307   0.004   0.010
  0.006   0.027  -0.000  -0.000   0.004   0.008   0.007  -0.005   0.001   3.164   0.023  -0.000  -0.041   0.004  -1.302  -0.011
  0.001   0.004   0.002  -0.004   0.001  -0.004   0.007  -0.002  -0.025   0.023   2.404   0.012   0.006   0.009  -0.010  -1.069
  0.004   0.007   0.004   0.003  -0.000  -0.005  -0.002   0.008   0.068  -0.000   0.012   3.168   0.021  -0.030   0.005  -0.005
 -0.002  -0.005   0.004   0.000  -0.001  -0.006   0.000   0.004  -0.000  -0.041   0.006   0.021   2.395   0.000   0.018   0.002
 -0.003  -0.001  -0.002  -0.002   0.000   0.001   0.002  -0.004  -1.307   0.004   0.009  -0.030   0.000   0.550  -0.003  -0.004
 -0.006  -0.014   0.000  -0.000  -0.002  -0.004  -0.004   0.002   0.004  -1.302  -0.010   0.005   0.018  -0.003   0.548   0.005
 -0.001   0.000  -0.001   0.003  -0.000   0.002  -0.003   0.001   0.010  -0.011  -1.069  -0.005   0.002  -0.004   0.005   0.482
 -0.003  -0.001  -0.002  -0.002   0.000   0.002   0.001  -0.004  -0.029   0.005  -0.005  -1.306  -0.008   0.014  -0.004   0.002
  0.001  -0.001  -0.003  -0.000   0.001   0.003   0.000  -0.001   0.000   0.019   0.002  -0.008  -1.071  -0.000  -0.008  -0.003


------------------------ aborting loop because EDIFF is reached ----------------------------------------


    CHARGE:  cpu time      0.0895: real time      0.0899
    FORLOC:  cpu time      0.0005: real time      0.0005
    FORNL :  cpu time      0.8468: real time      0.8498
    STRESS:  cpu time      1.0265: real time      1.0302
    FORCOR:  cpu time      0.0048: real time      0.0048
    FORHAR:  cpu time      0.0015: real time      0.0015
    MIXING:  cpu time      0.0007: real time      0.0007
    OFIELD:  cpu time      0.0000: real time      0.0000

  FORCE on cell =-STRESS in cart. coord.  units (eV):
  Direction    XX          YY          ZZ          XY          YZ          ZX
  --------------------------------------------------------------------------------------
  Alpha Z  1807.18284  1807.18284  1807.18284
  Ewald   -7758.49521 -7752.32262 -7758.49521     9.48457    -9.48457    -3.16152
  Hartree  1391.34731  1397.15890  1391.37265     8.36095    -8.32793    -3.29195
  E(xc)   -1008.85633 -1008.86577 -1008.86372    -0.01052    -0.00345     0.01136
  Local    1798.42213  1786.43412  1798.43512   -17.35401    17.46008     6.47578
  n-local  -336.61977  -336.52951  -336.51887    -0.19445     0.09253    -0.39019
  augment   616.96559   617.02395   616.99168    -0.09033     0.16555    -0.00950
  Kinetic  3452.18024  3452.16582  3452.26612    -0.14699     0.09774     0.25119
  Fock        0.00000     0.00000     0.00000     0.00000     0.00000     0.00000
  -------------------------------------------------------------------------------------
  Total     -37.87320   -37.75227   -37.62939     0.04922    -0.00007    -0.11483
  in kB    -212.99280  -212.31272  -211.62163     0.27681    -0.00037    -0.64579
  external pressure =     -212.31 kB  Pullay stress =        0.00 kB


 VOLUME and BASIS-vectors are now :
 -----------------------------------------------------------------------------
  energy-cutoff  :      250.00
  volume of cell :      284.89
      direct lattice vectors                 reciprocal lattice vectors
     6.580000000  0.000000000  0.000000000     0.151975684  0.000000000  0.000000000
     0.000000000  6.580000000  0.000000000     0.000000000  0.151975684  0.000000000
     0.000000000  0.000000000  6.580000000     0.000000000  0.000000000  0.151975684

  length of vectors
     6.580000000  6.580000000  6.580000000     0.151975684  0.151975684  0.151975684


 FORCES acting on ions
    electron-ion (+dipol)            ewald-force                    non-local-force                 convergence-correction
 -----------------------------------------------------------------------------------------------
   -.309E+02 -.309E+02 -.309E+02   0.306E+02 0.306E+02 0.306E+02   0.479E-01 -.230E-01 -.272E-01   -.867E-06 -.782E-05 -.520E-04
   0.309E+02 -.309E+02 0.309E+02   -.306E+02 0.306E+02 -.306E+02   -.468E-01 -.285E-01 0.299E-01   0.655E-05 0.325E-05 0.363E-04
   -.330E+02 0.108E+02 0.331E+02   0.329E+02 -.110E+02 -.329E+02   -.694E-01 0.116E-01 -.853E-03   0.246E-05 -.646E-04 -.355E-05
   -.330E+02 -.108E+02 -.331E+02   0.329E+02 0.110E+02 0.329E+02   -.705E-01 -.106E-01 -.905E-02   0.415E-05 0.632E-04 0.105E-04
   0.331E+02 -.108E+02 -.331E+02   -.329E+02 0.110E+02 0.329E+02   0.565E-01 -.198E-01 0.193E-01   -.923E-05 0.677E-04 0.803E-05
   -.331E+02 0.330E+02 -.329E+02   0.329E+02 -.329E+02 0.329E+02   -.541E-01 0.117E+00 -.113E+00   0.667E-05 -.688E-05 -.430E-04
   0.330E+02 0.108E+02 -.331E+02   -.329E+02 -.110E+02 0.329E+02   0.966E-01 -.454E-02 -.156E-01   0.502E-05 -.702E-04 0.296E-05
   0.331E+02 0.108E+02 0.331E+02   -.329E+02 -.110E+02 -.329E+02   0.554E-01 0.416E-01 -.782E-02   -.645E-05 -.647E-04 0.133E-05
   -.331E+02 -.329E+02 0.330E+02   0.329E+02 0.329E+02 -.329E+02   -.592E-01 -.120E+00 0.121E+00   0.262E-06 -.619E-05 0.435E-04
   -.330E+02 0.108E+02 -.331E+02   0.329E+02 -.110E+02 0.329E+02   -.734E-01 0.274E-01 0.157E-01   -.115E-04 -.685E-04 0.308E-05
   0.262E+02 0.262E+02 -.262E+02   -.259E+02 -.259E+02 0.259E+02   -.234E-01 0.330E-02 -.624E-02   0.399E-05 0.382E-05 -.402E-04
   -.262E+02 -.844E+01 0.261E+02   0.259E+02 0.863E+01 -.259E+02   -.110E-01 -.251E-01 -.210E-01   -.772E-05 0.477E-04 -.369E-05
   0.330E+02 -.330E+02 -.330E+02   -.329E+02 0.329E+02 0.329E+02   0.809E-01 -.658E-01 -.539E-01   0.114E-04 -.288E-05 -.465E-04
   0.330E+02 0.331E+02 0.331E+02   -.329E+02 -.329E+02 -.329E+02   0.787E-01 0.593E-01 0.674E-01   0.648E-05 -.866E-06 0.443E-04
   -.332E+02 0.332E+02 0.332E+02   0.329E+02 -.329E+02 -.329E+02   -.172E-01 0.892E-02 0.579E-02   -.515E-06 0.898E-05 0.452E-04
   0.331E+02 -.109E+02 0.331E+02   -.329E+02 0.110E+02 -.329E+02   0.405E-01 0.878E-01 0.381E-01   -.278E-05 0.483E-04 -.576E-05
 -----------------------------------------------------------------------------------------------
   -.315E-01 -.593E-01 -.419E-01   -.114E-12 0.171E-12 0.853E-13   0.315E-01 0.593E-01 0.419E-01   0.788E-05 -.496E-04 0.324E-06
 
 
 POSITION                                       TOTAL-FORCE (eV/Angst)
 -----------------------------------------------------------------------------------
      0.00000      0.00000      0.00000        -0.228489     -0.309448     -0.302989
      3.29000      0.00000      3.29000         0.212402     -0.311803      0.316062
      1.64500      4.93500      1.64500        -0.118284     -0.157407      0.158380
      1.64500      1.64500      4.93500        -0.119585      0.137088     -0.172986
      4.93500      1.64500      4.93500         0.160740      0.160051     -0.173414
      0.00000      3.29000      0.00000        -0.162698      0.128103     -0.111028
      4.93500      4.93500      4.93500         0.159355     -0.166915     -0.189305
      4.93500      4.93500      1.64500         0.159320     -0.143305      0.174322
      0.00000      0.00000      3.29000        -0.171931     -0.114653      0.131855
      1.64500      4.93500      4.93500        -0.146914     -0.151509     -0.184919
      3.29000      3.29000      0.00000         0.244963      0.338088     -0.327968
      1.64500      1.64500      1.64500        -0.309643      0.159715      0.237203
      3.29000      0.00000      0.00000         0.179268     -0.138872     -0.143697
      3.29000      3.29000      3.29000         0.177541      0.174834      0.171162
      0.00000      3.29000      3.29000        -0.223123      0.215807      0.222784
      4.93500      1.64500      1.64500         0.187079      0.180227      0.194538
 -----------------------------------------------------------------------------------
    total drift:                                0.000002      0.000010     -0.000002


--------------------------------------------------------------------------------------------------------



  FREE ENERGIE OF THE ION-ELECTRON SYSTEM (eV)
  ---------------------------------------------------
  free  energy   TOTEN  =      -183.32643995 eV

  energy  without entropy=     -183.32455615  energy(sigma->0) =     -183.32549805
 


--------------------------------------------------------------------------------------------------------


    POTLOK:  cpu time      0.0061: real time      0.0061


--------------------------------------------------------------------------------------------------------


     LOOP+:  cpu time    193.7899: real time    194.9246
    4ORBIT:  cpu time      0.0000: real time      0.0000

 total amount of memory used by VASP MPI-rank0    48519. kBytes
=======================================================================

   base      :      30000. kBytes
   nonl-proj :       8332. kBytes
   fftplans  :        456. kBytes
   grid      :        919. kBytes
   one-center:         31. kBytes
   wavefun   :       8781. kBytes
 
  
  
 General timing and accounting informations for this job:
 ========================================================
  
                  Total CPU time used (sec):      197.834
                            User time (sec):      193.871
                          System time (sec):        3.962
                         Elapsed time (sec):      199.827
  
                   Maximum memory used (kb):       91228.
                   Average memory used (kb):          N/A
  
                          Minor page faults:         9364
                          Major page faults:            0
                 Voluntary context switches:          258
