 vasp.6.3.1 04May22 (build Jul 26 2022 04:02:40) complex                        
  
 executed on             LinuxIFC date 2023.11.30  21:26:50
 running on   48 total cores
 distrk:  each k-point on   48 cores,    1 groups
 distr:  one band on NCORE=  12 cores,    4 groups


--------------------------------------------------------------------------------------------------------


 INCAR:
   ISTART = 0
   NWRITE = 2
   PREC = Accurate
   ENCUT = 250
   GGA = PE
   NSW = 0
   ISIF = 2
   ISYM = 2
   NBLOCK = 1
   KBLOCK = 1
   IBRION = -1
   NELM = 80
   EDIFF = 1E-08
   EDIFFG = -0.01
   ALGO = Normal
   LDIAG = .TRUE.
   LREAL = .FALSE.
   ISMEAR = 0
   SIGMA = 0.02
   ICHARG = 2
   LPLANE = .TRUE.
   NPAR = 4
   LSCALU = .FALSE.
   NSIM = 4
   LWAVE = .FALSE.
   LCHARG = .FALSE.
   ICORELEVEL = 1

 POTCAR:    PAW_PBE Nb_sv 25May2007               
 POTCAR:    PAW_PBE Mo_sv 02Feb2006               
 POTCAR:    PAW_PBE Ta_pv 07Sep2000               
 POTCAR:    PAW_PBE W_sv 04Sep2015                
 POTCAR:    PAW_PBE Nb_sv 25May2007               
   SHA256 =  0e8fc07c9fcd1164cf2ade22d0399fd28f85e91cd773dfa6cf24839a48c95e24 Nb_sv/POTCAR          
   COPYR  = (c) Copyright 25May2007 Georg Kresse                                                    
   COPYR  = This file is part of the software VASP. Any use, copying, and all other rights are regul
   COPYR  = If you do not have a valid VASP license, you may not use, copy or distribute this file. 
   VRHFIN =Nb: 4p5s4d                                                                               
   LEXCH  = PE                                                                                      
   EATOM  =  1555.1913 eV,  114.3033 Ry                                                             
                                                                                                    
   TITEL  = PAW_PBE Nb_sv 25May2007                                                                 
   LULTRA =        F    use ultrasoft PP ?                                                          
   IUNSCR =        1    unscreen: 0-lin 1-nonlin 2-no                                               
   RPACOR =    1.800    partial core radius                                                         
   POMASS =   92.910; ZVAL   =   13.000    mass and valenz                                          
   RCORE  =    2.400    outmost cutoff radius                                                       
   RWIGS  =    2.400; RWIGS  =    1.270    wigner-seitz radius (au A)                               
   ENMAX  =  293.235; ENMIN  =  219.927 eV                                                          
   ICORE  =        3    local potential                                                             
   LCOR   =        T    correct aug charges                                                         
   LPAW   =        T    paw PP                                                                      
   EAUG   =  455.659                                                                                
   DEXC   =    0.000                                                                                
   RMAX   =    2.456    core radius for proj-oper                                                   
   RAUG   =    1.300    factor for augmentation sphere                                              
   RDEP   =    2.451    radius for radial grids                                                     
   RDEPT  =    1.956    core radius for aug-charge                                                  
                                                                                                    
   Atomic configuration                                                                             
   11 entries                                                                                       
     n  l   j            E        occ.                                                              
     1  0  0.50    -18805.2457   2.0000                                                             
     2  0  0.50     -2630.2869   2.0000                                                             
     2  1  1.50     -2348.4046   6.0000                                                             
     3  0  0.50      -438.8757   2.0000                                                             
     3  1  1.50      -346.7588   6.0000                                                             
     3  2  2.50      -196.2560  10.0000                                                             
     4  0  0.50       -58.3859   2.0000                                                             
     5  0  0.50        -3.9816   1.0000                                                             
     4  1  1.50       -34.5141   6.0000                                                             
     4  2  2.50        -3.0408   4.0000                                                             
     4  3  2.50        -1.3606   0.0000                                                             
   Description                                                                                      
     l       E           TYP  RCUT    TYP  RCUT                                                     
     0    -58.3859094     23  2.200                                                                 
     0     -3.9816262     23  2.200                                                                 
     1    -34.5140738     23  2.200                                                                 
     1     13.6058260     23  2.200                                                                 
     2     -3.0408010     23  2.200                                                                 
     2     -0.1283038     23  2.200                                                                 
     3     -1.3605826     23  2.400                                                                 
  local pseudopotential read in
  partial core-charges read in
  partial kinetic energy density read in
  atomic valenz-charges read in
  non local Contribution for L=           0  read in
    real space projection operators read in
  non local Contribution for L=           0  read in
    real space projection operators read in
  non local Contribution for L=           1  read in
    real space projection operators read in
  non local Contribution for L=           1  read in
    real space projection operators read in
  non local Contribution for L=           2  read in
    real space projection operators read in
  non local Contribution for L=           2  read in
    real space projection operators read in
    PAW grid and wavefunctions read in
 
   number of l-projection  operators is LMAX  =           6
   number of lm-projection operators is LMMAX =          18
 
 POTCAR:    PAW_PBE Mo_sv 02Feb2006               
   SHA256 =  2731df97e41766cc617548c5a8267718fdef1f509ac6bafa01e745abea2bdfaa Mo_sv/POTCAR          
   COPYR  = (c) Copyright 02Feb2006 Georg Kresse                                                    
   COPYR  = This file is part of the software VASP. Any use, copying, and all other rights are regul
   COPYR  = If you do not have a valid VASP license, you may not use, copy or distribute this file. 
   VRHFIN =Mo: 4p5s4d                                                                               
   LEXCH  = PE                                                                                      
   EATOM  =  1862.2866 eV,  136.8742 Ry                                                             
                                                                                                    
   TITEL  = PAW_PBE Mo_sv 02Feb2006                                                                 
   LULTRA =        F    use ultrasoft PP ?                                                          
   IUNSCR =        1    unscreen: 0-lin 1-nonlin 2-no                                               
   RPACOR =    2.200    partial core radius                                                         
   POMASS =   95.940; ZVAL   =   14.000    mass and valenz                                          
   RCORE  =    2.500    outmost cutoff radius                                                       
   RWIGS  =    2.750; RWIGS  =    1.455    wigner-seitz radius (au A)                               
   ENMAX  =  242.676; ENMIN  =  182.007 eV                                                          
   ICORE  =        3    local potential                                                             
   LCOR   =        T    correct aug charges                                                         
   LPAW   =        T    paw PP                                                                      
   EAUG   =  446.014                                                                                
   DEXC   =    0.000                                                                                
   RMAX   =    2.563    core radius for proj-oper                                                   
   RAUG   =    1.300    factor for augmentation sphere                                              
   RDEP   =    2.641    radius for radial grids                                                     
   RDEPT  =    2.031    core radius for aug-charge                                                  
                                                                                                    
   Atomic configuration                                                                             
   11 entries                                                                                       
     n  l   j            E        occ.                                                              
     1  0  0.50    -19819.0341   2.0000                                                             
     2  0  0.50     -2799.0127   2.0000                                                             
     2  1  1.50     -2502.0276   6.0000                                                             
     3  0  0.50      -476.4449   2.0000                                                             
     3  1  1.50      -379.1496   6.0000                                                             
     3  2  2.50      -220.9367  10.0000                                                             
     4  0  0.50       -64.3378   2.0000                                                             
     5  0  0.50        -4.0862   1.0000                                                             
     4  1  1.50       -38.4773   6.0000                                                             
     4  2  2.50        -3.7535   5.0000                                                             
     4  3  2.50        -1.3606   0.0000                                                             
   Description                                                                                      
     l       E           TYP  RCUT    TYP  RCUT                                                     
     0    -64.3377829     23  2.100                                                                 
     0     -4.0861640     23  2.400                                                                 
     1    -38.4772993     23  2.100                                                                 
     1     13.6058260     23  2.100                                                                 
     2     -3.7534941     23  2.400                                                                 
     2     -5.1140767     23  2.400                                                                 
     3     -4.0817478     23  2.500                                                                 
  local pseudopotential read in
  partial core-charges read in
  partial kinetic energy density read in
  atomic valenz-charges read in
  non local Contribution for L=           0  read in
    real space projection operators read in
  non local Contribution for L=           0  read in
    real space projection operators read in
  non local Contribution for L=           1  read in
    real space projection operators read in
  non local Contribution for L=           1  read in
    real space projection operators read in
  non local Contribution for L=           2  read in
    real space projection operators read in
  non local Contribution for L=           2  read in
    real space projection operators read in
    PAW grid and wavefunctions read in
 
   number of l-projection  operators is LMAX  =           6
   number of lm-projection operators is LMMAX =          18
 
 POTCAR:    PAW_PBE Ta_pv 07Sep2000               
   SHA256 =  00d0a14a36c127416459414afb8617d9754996fffa60a2465888e660b20a452f Ta_pv/POTCAR          
   COPYR  = (c) Copyright 07Sep2000 Georg Kresse                                                    
   COPYR  = This file is part of the software VASP. Any use, copying, and all other rights are regul
   COPYR  = If you do not have a valid VASP license, you may not use, copy or distribute this file. 
   VRHFIN =Ta:  5p6s5d                                                                              
   LEXCH  = PE                                                                                      
   EATOM  =  1047.1984 eV,   76.9669 Ry                                                             
                                                                                                    
   TITEL  = PAW_PBE Ta_pv 07Sep2000                                                                 
   LULTRA =        F    use ultrasoft PP ?                                                          
   IUNSCR =        1    unscreen: 0-lin 1-nonlin 2-no                                               
   RPACOR =    2.330    partial core radius                                                         
   POMASS =  180.948; ZVAL   =   11.000    mass and valenz                                          
   RCORE  =    2.500    outmost cutoff radius                                                       
   RWIGS  =    2.840; RWIGS  =    1.503    wigner-seitz radius (au A)                               
   ENMAX  =  223.667; ENMIN  =  167.750 eV                                                          
   RCLOC  =    2.205    cutoff for local pot                                                        
   LCOR   =        T    correct aug charges                                                         
   LPAW   =        T    paw PP                                                                      
   EAUG   =  377.421                                                                                
   DEXC   =    0.000                                                                                
   RMAX   =    2.551    core radius for proj-oper                                                   
   RAUG   =    1.300    factor for augmentation sphere                                              
   RDEP   =    2.526    radius for radial grids                                                     
   RDEPT  =    2.132    core radius for aug-charge                                                  
                                                                                                    
   Atomic configuration                                                                             
   15 entries                                                                                       
     n  l   j            E        occ.                                                              
     1  0  0.50    -67341.2801   2.0000                                                             
     2  0  0.50    -11566.9369   2.0000                                                             
     2  1  1.50    -10134.1175   6.0000                                                             
     3  0  0.50     -2648.5614   2.0000                                                             
     3  1  1.50     -2222.6006   6.0000                                                             
     3  2  2.50     -1726.3114  10.0000                                                             
     4  0  0.50      -538.6957   2.0000                                                             
     4  1  1.50      -399.0125   6.0000                                                             
     4  2  2.50      -220.3955  10.0000                                                             
     4  3  3.50       -23.0371  14.0000                                                             
     5  0  0.50       -71.2900   2.0000                                                             
     5  1  1.50       -37.8224   6.0000                                                             
     5  2  2.50        -2.6455   4.0000                                                             
     6  0  0.50        -4.9623   1.0000                                                             
     5  3  2.50        -1.3606   0.0000                                                             
   Description                                                                                      
     l       E           TYP  RCUT    TYP  RCUT                                                     
     1    -37.8224449     23  2.500                                                                 
     1      1.3605826     23  2.500                                                                 
     2     -2.6454718     23  2.500                                                                 
     2     -0.6258570     23  2.500                                                                 
     0     -4.9622674     23  2.500                                                                 
     0      4.7531427     23  2.500                                                                 
  local pseudopotential read in
  partial core-charges read in
  partial kinetic energy density read in
  atomic valenz-charges read in
  non local Contribution for L=           1  read in
    real space projection operators read in
  non local Contribution for L=           1  read in
    real space projection operators read in
  non local Contribution for L=           2  read in
    real space projection operators read in
  non local Contribution for L=           2  read in
    real space projection operators read in
  non local Contribution for L=           0  read in
    real space projection operators read in
  non local Contribution for L=           0  read in
    real space projection operators read in
    PAW grid and wavefunctions read in
 
   number of l-projection  operators is LMAX  =           6
   number of lm-projection operators is LMMAX =          18
 
 POTCAR:    PAW_PBE W_sv 04Sep2015                
   SHA256 =  931c2d770f65867ef30f3db3421922900fc0890ebac5c3e12f63b6a2064023d7 W_sv/POTCAR           
   COPYR  = (c) Copyright 04Sep2015 Georg Kresse                                                    
   COPYR  = This file is part of the software VASP. Any use, copying, and all other rights are regul
   COPYR  = If you do not have a valid VASP license, you may not use, copy or distribute this file. 
   VRHFIN =W : 5p6s5d                                                                               
   LEXCH  = PE                                                                                      
   EATOM  =  1865.5791 eV,  137.1162 Ry                                                             
                                                                                                    
   TITEL  = PAW_PBE W_sv 04Sep2015                                                                  
   LULTRA =        F    use ultrasoft PP ?                                                          
   IUNSCR =        1    unscreen: 0-lin 1-nonlin 2-no                                               
   RPACOR =    2.330    partial core radius                                                         
   POMASS =  183.850; ZVAL   =   14.000    mass and valenz                                          
   RCORE  =    2.500    outmost cutoff radius                                                       
   RWIGS  =    2.750; RWIGS  =    1.455    wigner-seitz radius (au A)                               
   ENMAX  =  223.057; ENMIN  =  167.293 eV                                                          
   ICORE  =        3    local potential                                                             
   LCOR   =        T    correct aug charges                                                         
   LPAW   =        T    paw PP                                                                      
   EAUG   =  373.438                                                                                
   DEXC   =    0.000                                                                                
   RMAX   =    2.565    core radius for proj-oper                                                   
   RAUG   =    1.300    factor for augmentation sphere                                              
   RDEP   =    2.539    radius for radial grids                                                     
   RDEPT  =    2.126    core radius for aug-charge                                                  
                                                                                                    
   Atomic configuration                                                                             
   15 entries                                                                                       
     n  l   j            E        occ.                                                              
     1  0  0.50    -69465.5834   2.0000                                                             
     2  0  0.50    -11986.2640   2.0000                                                             
     2  1  1.50    -10479.8613   6.0000                                                             
     3  0  0.50     -2759.0756   2.0000                                                             
     3  1  1.50     -2313.1855   6.0000                                                             
     3  2  2.50     -1801.1183  10.0000                                                             
     4  0  0.50      -567.6789   2.0000                                                             
     4  1  1.50      -421.4692   6.0000                                                             
     4  2  2.50      -236.3471  10.0000                                                             
     4  3  3.50       -31.2665  14.0000                                                             
     5  0  0.50       -77.1084   2.0000                                                             
     6  0  0.50        -5.1438   1.0000                                                             
     5  1  1.50       -41.3856   6.0000                                                             
     5  2  2.50        -3.3185   5.0000                                                             
     5  3  2.50        -1.3606   0.0000                                                             
   Description                                                                                      
     l       E           TYP  RCUT    TYP  RCUT                                                     
     0    -77.1084470     23  2.100                                                                 
     0     -5.1437956     23  2.300                                                                 
     1    -41.3855615     23  2.500                                                                 
     1     -2.7211652     23  2.500                                                                 
     2     -3.3185025     23  2.500                                                                 
     2     -1.5965151     23  2.500                                                                 
     3     -1.3605826     23  2.500                                                                 
  local pseudopotential read in
  partial core-charges read in
  partial kinetic energy density read in
  kinetic energy density of atom read in
  atomic valenz-charges read in
  non local Contribution for L=           0  read in
    real space projection operators read in
  non local Contribution for L=           0  read in
    real space projection operators read in
  non local Contribution for L=           1  read in
    real space projection operators read in
  non local Contribution for L=           1  read in
    real space projection operators read in
  non local Contribution for L=           2  read in
    real space projection operators read in
  non local Contribution for L=           2  read in
    real space projection operators read in
    PAW grid and wavefunctions read in
 
   number of l-projection  operators is LMAX  =           6
   number of lm-projection operators is LMMAX =          18
 
 -----------------------------------------------------------------------------
|                                                                             |
|               ----> ADVICE to this user running VASP <----                  |
|                                                                             |
|     You have a (more or less) 'large supercell' and for larger cells it     |
|     might be more efficient to use real-space projection operators.         |
|     Therefore, try LREAL= Auto in the INCAR file.                           |
|     Mind: For very accurate calculation, you might also keep the            |
|     reciprocal projection scheme (i.e. LREAL=.FALSE.).                      |
|                                                                             |
 -----------------------------------------------------------------------------

  PAW_PBE Nb_sv 25May2007               :
 energy of atom  1       EATOM=-1555.1913
 kinetic energy error for atom=    0.2155 (will be added to EATOM!!)
  PAW_PBE Mo_sv 02Feb2006               :
 energy of atom  2       EATOM=-1862.2866
 kinetic energy error for atom=    0.1102 (will be added to EATOM!!)
  PAW_PBE Ta_pv 07Sep2000               :
 energy of atom  3       EATOM=-1047.1984
 kinetic energy error for atom=    0.0394 (will be added to EATOM!!)
  PAW_PBE W_sv 04Sep2015                :
 energy of atom  4       EATOM=-1865.5791
 kinetic energy error for atom=    0.0589 (will be added to EATOM!!)
 
 
 POSCAR: Nb-Mo-Ta-W alloy
  positions in direct lattice
  No initial velocities read in
 exchange correlation table for  LEXCH =        8
   RHO(1)=    0.500       N(1)  =     2000
   RHO(2)=  100.500       N(2)  =     4000
 


--------------------------------------------------------------------------------------------------------


 ion  position               nearest neighbor table
   1  0.000  0.750  0.500-  32 2.85  43 2.85  44 2.85  45 2.85  47 2.85  54 2.85  55 2.85  57 2.85

   2  0.250  0.000  0.000-   4 2.85   6 2.85   8 2.85  16 2.85  27 2.85  31 2.85  44 2.85  55 2.85
                            48 3.29  41 3.29
   3  0.625  0.875  0.250-  10 2.85  11 2.85  21 2.85  22 2.85  24 2.85  26 2.85  59 2.85  60 2.85
                            45 3.29
   4  0.375  0.125  0.250-   2 2.85  15 2.85  24 2.85  26 2.85  29 2.85  35 2.85  41 2.85  58 2.85
                            40 3.29
   5  0.750  0.250  0.000-   7 2.85  18 2.85  20 2.85  25 2.85  36 2.85  38 2.85  52 2.85  56 2.85
                            35 3.29  42 3.29  42 3.29
   6  0.125  0.125  0.750-   2 2.85   9 2.85  12 2.85  15 2.85  29 2.85  34 2.85  41 2.85  48 2.85
                            44 3.29
   7  0.875  0.375  0.750-   5 2.85  12 2.85  30 2.85  34 2.85  42 2.85  46 2.85  49 2.85  61 2.85
                            38 3.29  38 3.29
   8  0.125  0.125  0.250-   2 2.85   9 2.85  12 2.85  15 2.85  29 2.85  34 2.85  41 2.85  48 2.85

   9  0.000  0.000  0.500-   6 2.85   8 2.85  20 2.85  25 2.85  43 2.85  44 2.85  45 2.85  55 2.85
                            48 3.29  48 3.29
  10  0.500  0.750  0.500-   3 2.85  16 2.85  19 2.85  23 2.85  27 2.85  37 2.85  39 2.85  50 2.85

  11  0.750  0.750  0.000-   3 2.85  19 2.85  23 2.85  32 2.85  43 2.85  45 2.85  47 2.85  50 2.85

  12  0.000  0.250  0.000-   6 2.85   7 2.85   8 2.85  17 2.85  20 2.85  25 2.85  28 2.85  38 2.85
                            41 3.29  48 3.29  49 3.29
  13  0.500  0.500  0.000-  18 2.85  19 2.85  36 2.85  37 2.85  39 2.85  40 2.85  50 2.85  63 2.85
                            33 3.29  35 3.29  14 3.29  60 3.29  30 3.29  14 3.29
  14  0.500  0.500  0.500-  18 2.85  19 2.85  36 2.85  37 2.85  39 2.85  40 2.85  50 2.85  63 2.85
                            13 3.29  51 3.29  58 3.29  46 3.29  13 3.29
  15  0.250  0.250  0.500-   4 2.85   6 2.85   8 2.85  17 2.85  28 2.85  31 2.85  40 2.85  63 2.85
                            29 3.29  41 3.29  51 3.29  58 3.29  34 3.29  41 3.29
  16  0.375  0.875  0.250-   2 2.85  10 2.85  24 2.85  26 2.85  29 2.85  60 2.85  62 2.85  64 2.85
                            27 3.29  37 3.29  55 3.29  27 3.29
  17  0.125  0.375  0.750-  12 2.85  15 2.85  33 2.85  34 2.85  41 2.85  49 2.85  51 2.85  61 2.85
                            57 3.29  28 3.29  63 3.29  28 3.29
  18  0.625  0.375  0.750-   5 2.85  13 2.85  14 2.85  30 2.85  35 2.85  42 2.85  46 2.85  58 2.85
                            50 3.29  52 3.29  36 3.29  63 3.29  36 3.29
  19  0.625  0.625  0.250-  10 2.85  11 2.85  13 2.85  14 2.85  22 2.85  30 2.85  46 2.85  60 2.85
                            36 3.29  47 3.29  50 3.29  37 3.29  50 3.29
  20  0.875  0.125  0.750-   5 2.85   9 2.85  12 2.85  21 2.85  34 2.85  42 2.85  48 2.85  59 2.85
                            25 3.29  52 3.29  43 3.29  25 3.29
  21  0.750  0.000  0.000-   3 2.85  20 2.85  23 2.85  25 2.85  43 2.85  45 2.85  52 2.85  56 2.85
                            24 3.29  48 3.29  59 3.29  59 3.29
  22  0.750  0.750  0.500-   3 2.85  19 2.85  23 2.85  32 2.85  43 2.85  45 2.85  47 2.85  50 2.85
                            46 3.29  59 3.29
  23  0.625  0.875  0.750-  10 2.85  11 2.85  21 2.85  22 2.85  24 2.85  26 2.85  59 2.85  60 2.85
                            50 3.29  52 3.29  27 3.29  43 3.29
  24  0.500  0.000  0.000-   3 2.85   4 2.85  16 2.85  23 2.85  27 2.85  31 2.85  52 2.85  56 2.85
                            35 3.29  21 3.29  26 3.29  60 3.29  26 3.29
  25  0.875  0.125  0.250-   5 2.85   9 2.85  12 2.85  21 2.85  34 2.85  42 2.85  48 2.85  59 2.85
                            45 3.29  38 3.29  56 3.29  20 3.29  20 3.29
  26  0.500  0.000  0.500-   3 2.85   4 2.85  16 2.85  23 2.85  27 2.85  31 2.85  52 2.85  56 2.85
                            29 3.29  24 3.29  58 3.29  59 3.29  24 3.29
  27  0.375  0.875  0.750-   2 2.85  10 2.85  24 2.85  26 2.85  29 2.85  60 2.85  62 2.85  64 2.85
                            39 3.29  44 3.29  23 3.29  16 3.29  31 3.29  16 3.29
  28  0.125  0.375  0.250-  12 2.85  15 2.85  33 2.85  34 2.85  41 2.85  49 2.85  51 2.85  61 2.85
                            38 3.29  40 3.29  54 3.29  17 3.29  17 3.29
  29  0.250  0.000  0.500-   4 2.85   6 2.85   8 2.85  16 2.85  27 2.85  31 2.85  44 2.85  55 2.85
                            15 3.29  26 3.29  62 3.29
  30  0.750  0.500  0.000-   7 2.85  18 2.85  19 2.85  32 2.85  36 2.85  38 2.85  47 2.85  50 2.85
                            13 3.29  49 3.29  46 3.29  46 3.29
  31  0.375  0.125  0.750-   2 2.85  15 2.85  24 2.85  26 2.85  29 2.85  35 2.85  41 2.85  58 2.85
                            52 3.29  27 3.29  63 3.29
  32  0.875  0.625  0.750-   1 2.85  11 2.85  22 2.85  30 2.85  46 2.85  49 2.85  53 2.85  61 2.85
                            50 3.29  47 3.29  57 3.29  43 3.29  47 3.29
  33  0.250  0.500  0.000-  17 2.85  28 2.85  37 2.85  39 2.85  40 2.85  54 2.85  57 2.85  63 2.85
                            51 3.29  13 3.29  41 3.29  49 3.29  64 3.29  51 3.29
  34  0.000  0.250  0.500-   6 2.85   7 2.85   8 2.85  17 2.85  20 2.85  25 2.85  28 2.85  38 2.85
                            15 3.29  42 3.29  61 3.29
  35  0.500  0.250  0.000-   4 2.85  18 2.85  31 2.85  36 2.85  40 2.85  52 2.85  56 2.85  63 2.85
                            41 3.29  13 3.29   5 3.29  58 3.29  24 3.29  58 3.29
  36  0.625  0.375  0.250-   5 2.85  13 2.85  14 2.85  30 2.85  35 2.85  42 2.85  46 2.85  58 2.85
                            40 3.29  18 3.29  19 3.29  56 3.29  38 3.29  18 3.29
  37  0.375  0.625  0.250-  10 2.85  13 2.85  14 2.85  33 2.85  51 2.85  60 2.85  62 2.85  64 2.85
                            19 3.29  54 3.29  16 3.29  39 3.29  40 3.29  39 3.29
  38  0.875  0.375  0.250-   5 2.85  12 2.85  30 2.85  34 2.85  42 2.85  46 2.85  49 2.85  61 2.85
                            28 3.29   7 3.29  47 3.29  25 3.29  36 3.29   7 3.29
  39  0.375  0.625  0.750-  10 2.85  13 2.85  14 2.85  33 2.85  51 2.85  60 2.85  62 2.85  64 2.85
                            57 3.29  37 3.29  50 3.29  63 3.29  27 3.29  37 3.29
  40  0.375  0.375  0.250-  13 2.85  14 2.85  15 2.85  33 2.85  35 2.85  41 2.85  51 2.85  58 2.85
                            37 3.29   4 3.29  28 3.29  36 3.29  63 3.29  63 3.29
  41  0.250  0.250  0.000-   4 2.85   6 2.85   8 2.85  17 2.85  28 2.85  31 2.85  40 2.85  63 2.85
                            15 3.29  33 3.29  35 3.29   2 3.29  12 3.29  15 3.29
  42  0.750  0.250  0.500-   7 2.85  18 2.85  20 2.85  25 2.85  36 2.85  38 2.85  52 2.85  56 2.85
                            46 3.29   5 3.29  34 3.29  58 3.29  59 3.29   5 3.29
  43  0.875  0.875  0.750-   1 2.85   9 2.85  11 2.85  21 2.85  22 2.85  48 2.85  53 2.85  59 2.85
                            44 3.29  45 3.29  20 3.29  23 3.29  32 3.29  45 3.29
  44  0.125  0.875  0.750-   1 2.85   2 2.85   9 2.85  29 2.85  48 2.85  53 2.85  62 2.85  64 2.85
                             6 3.29  55 3.29  57 3.29  43 3.29  27 3.29  55 3.29
  45  0.875  0.875  0.250-   1 2.85   9 2.85  11 2.85  21 2.85  22 2.85  48 2.85  53 2.85  59 2.85
                            47 3.29   3 3.29  25 3.29  55 3.29  43 3.29  43 3.29
  46  0.750  0.500  0.500-   7 2.85  18 2.85  19 2.85  32 2.85  36 2.85  38 2.85  47 2.85  50 2.85
                            30 3.29  42 3.29  14 3.29  22 3.29  61 3.29  30 3.29
  47  0.875  0.625  0.250-   1 2.85  11 2.85  22 2.85  30 2.85  46 2.85  49 2.85  53 2.85  61 2.85
                            19 3.29  32 3.29  38 3.29  54 3.29  45 3.29  32 3.29
  48  0.000  0.000  0.000-   6 2.85   8 2.85  20 2.85  25 2.85  43 2.85  44 2.85  45 2.85  55 2.85
                            12 3.29   2 3.29  21 3.29  53 3.29   9 3.29   9 3.29
  49  0.000  0.500  0.000-   7 2.85  17 2.85  28 2.85  32 2.85  38 2.85  47 2.85  54 2.85  57 2.85
                            12 3.29  53 3.29  33 3.29  30 3.29  61 3.29  61 3.29
  50  0.625  0.625  0.750-  10 2.85  11 2.85  13 2.85  14 2.85  22 2.85  30 2.85  46 2.85  60 2.85
                            19 3.29  32 3.29  39 3.29  18 3.29  23 3.29  19 3.29
  51  0.250  0.500  0.500-  17 2.85  28 2.85  37 2.85  39 2.85  40 2.85  54 2.85  57 2.85  63 2.85
                            14 3.29  15 3.29  61 3.29  62 3.29  33 3.29  33 3.29
  52  0.625  0.125  0.750-   5 2.85  21 2.85  24 2.85  26 2.85  35 2.85  42 2.85  58 2.85  59 2.85
                            23 3.29  20 3.29  56 3.29  18 3.29  31 3.29  56 3.29
  53  0.000  0.750  0.000-  32 2.85  43 2.85  44 2.85  45 2.85  47 2.85  54 2.85  55 2.85  57 2.85
                            49 3.29  48 3.29  64 3.29
  54  0.125  0.625  0.250-   1 2.85  33 2.85  49 2.85  51 2.85  53 2.85  61 2.85  62 2.85  64 2.85
                            55 3.29  57 3.29  28 3.29  37 3.29  47 3.29  57 3.29
  55  0.125  0.875  0.250-   1 2.85   2 2.85   9 2.85  29 2.85  48 2.85  53 2.85  62 2.85  64 2.85
                            44 3.29  54 3.29  45 3.29  16 3.29  44 3.29
  56  0.625  0.125  0.250-   5 2.85  21 2.85  24 2.85  26 2.85  35 2.85  42 2.85  58 2.85  59 2.85
                            52 3.29  36 3.29  25 3.29  52 3.29
  57  0.125  0.625  0.750-   1 2.85  33 2.85  49 2.85  51 2.85  53 2.85  61 2.85  62 2.85  64 2.85
                            39 3.29  54 3.29  44 3.29  32 3.29  17 3.29  54 3.29
  58  0.500  0.250  0.500-   4 2.85  18 2.85  31 2.85  36 2.85  40 2.85  52 2.85  56 2.85  63 2.85
                            26 3.29  42 3.29  15 3.29  35 3.29  14 3.29  35 3.29
  59  0.750  0.000  0.500-   3 2.85  20 2.85  23 2.85  25 2.85  43 2.85  45 2.85  52 2.85  56 2.85
                            21 3.29  22 3.29  26 3.29  42 3.29  21 3.29
  60  0.500  0.750  0.000-   3 2.85  16 2.85  19 2.85  23 2.85  27 2.85  37 2.85  39 2.85  50 2.85
                            13 3.29  24 3.29  64 3.29
  61  0.000  0.500  0.500-   7 2.85  17 2.85  28 2.85  32 2.85  38 2.85  47 2.85  54 2.85  57 2.85
                            49 3.29  51 3.29  46 3.29  34 3.29  49 3.29
  62  0.250  0.750  0.500-  16 2.85  27 2.85  37 2.85  39 2.85  44 2.85  54 2.85  55 2.85  57 2.85
                            51 3.29  29 3.29  64 3.29  64 3.29
  63  0.375  0.375  0.750-  13 2.85  14 2.85  15 2.85  33 2.85  35 2.85  41 2.85  51 2.85  58 2.85
                            39 3.29  40 3.29  31 3.29  17 3.29  18 3.29  40 3.29
  64  0.250  0.750  0.000-  16 2.85  27 2.85  37 2.85  39 2.85  44 2.85  54 2.85  55 2.85  57 2.85
                            53 3.29  33 3.29  60 3.29  62 3.29  62 3.29
 
  LATTYP: Found a simple tetragonal cell.
 ALAT       =    13.1600000000
 C/A-ratio  =     0.5000000000
  
  Lattice vectors:
  
 A1 = (  13.1600000000,   0.0000000000,   0.0000000000)
 A2 = (   0.0000000000,  13.1600000000,   0.0000000000)
 A3 = (   0.0000000000,   0.0000000000,   6.5800000000)


Analysis of symmetry for initial positions (statically):
=====================================================================
 Subroutine PRICEL returns:
 Original cell was already a primitive cell.
 

 Routine SETGRP: Setting up the symmetry group for a 
 simple tetragonal supercell.


 Subroutine GETGRP returns: Found  1 space group operations
 (whereof  1 operations were pure point group operations)
 out of a pool of 16 trial point group operations.


The static configuration has the point symmetry C_1 .


Analysis of symmetry for dynamics (positions and initial velocities):
=====================================================================
 Subroutine PRICEL returns:
 Original cell was already a primitive cell.
 

 Routine SETGRP: Setting up the symmetry group for a 
 simple tetragonal supercell.


 Subroutine GETGRP returns: Found  1 space group operations
 (whereof  1 operations were pure point group operations)
 out of a pool of 16 trial point group operations.


The dynamic configuration has the point symmetry C_1 .


 Subroutine INISYM returns: Found  1 space group operations
 (whereof  1 operations are pure point group operations),
 and found     1 'primitive' translations


----------------------------------------------------------------------------------------

                                     Primitive cell                                     

  volume of cell :    1139.5612

  direct lattice vectors                    reciprocal lattice vectors
    13.160000000  0.000000000  0.000000000     0.075987842  0.000000000  0.000000000
     0.000000000 13.160000000  0.000000000     0.000000000  0.075987842  0.000000000
     0.000000000  0.000000000  6.580000000     0.000000000  0.000000000  0.151975684

  length of vectors
    13.160000000 13.160000000  6.580000000     0.075987842  0.075987842  0.151975684

  position of ions in fractional coordinates (direct lattice)
     0.000000000  0.750000000  0.500000000
     0.250000000  0.000000000  0.000000000
     0.625000000  0.875000000  0.250000000
     0.375000000  0.125000000  0.250000000
     0.750000000  0.250000000  0.000000000
     0.125000000  0.125000000  0.750000000
     0.875000000  0.375000000  0.750000000
     0.125000000  0.125000000  0.250000000
     0.000000000  0.000000000  0.500000000
     0.500000000  0.750000000  0.500000000
     0.750000000  0.750000000  0.000000000
     0.000000000  0.250000000  0.000000000
     0.500000000  0.500000000  0.000000000
     0.500000000  0.500000000  0.500000000
     0.250000000  0.250000000  0.500000000
     0.375000000  0.875000000  0.250000000
     0.125000000  0.375000000  0.750000000
     0.625000000  0.375000000  0.750000000
     0.625000000  0.625000000  0.250000000
     0.875000000  0.125000000  0.750000000
     0.750000000  0.000000000  0.000000000
     0.750000000  0.750000000  0.500000000
     0.625000000  0.875000000  0.750000000
     0.500000000  0.000000000  0.000000000
     0.875000000  0.125000000  0.250000000
     0.500000000  0.000000000  0.500000000
     0.375000000  0.875000000  0.750000000
     0.125000000  0.375000000  0.250000000
     0.250000000  0.000000000  0.500000000
     0.750000000  0.500000000  0.000000000
     0.375000000  0.125000000  0.750000000
     0.875000000  0.625000000  0.750000000
     0.250000000  0.500000000  0.000000000
     0.000000000  0.250000000  0.500000000
     0.500000000  0.250000000  0.000000000
     0.625000000  0.375000000  0.250000000
     0.375000000  0.625000000  0.250000000
     0.875000000  0.375000000  0.250000000
     0.375000000  0.625000000  0.750000000
     0.375000000  0.375000000  0.250000000
     0.250000000  0.250000000  0.000000000
     0.750000000  0.250000000  0.500000000
     0.875000000  0.875000000  0.750000000
     0.125000000  0.875000000  0.750000000
     0.875000000  0.875000000  0.250000000
     0.750000000  0.500000000  0.500000000
     0.875000000  0.625000000  0.250000000
     0.000000000  0.000000000  0.000000000
     0.000000000  0.500000000  0.000000000
     0.625000000  0.625000000  0.750000000
     0.250000000  0.500000000  0.500000000
     0.625000000  0.125000000  0.750000000
     0.000000000  0.750000000  0.000000000
     0.125000000  0.625000000  0.250000000
     0.125000000  0.875000000  0.250000000
     0.625000000  0.125000000  0.250000000
     0.125000000  0.625000000  0.750000000
     0.500000000  0.250000000  0.500000000
     0.750000000  0.000000000  0.500000000
     0.500000000  0.750000000  0.000000000
     0.000000000  0.500000000  0.500000000
     0.250000000  0.750000000  0.500000000
     0.375000000  0.375000000  0.750000000
     0.250000000  0.750000000  0.000000000

  ion indices of the primitive-cell ions
   primitive index   ion index
                 1           1
                 2           2
                 3           3
                 4           4
                 5           5
                 6           6
                 7           7
                 8           8
                 9           9
                10          10
                11          11
                12          12
                13          13
                14          14
                15          15
                16          16
                17          17
                18          18
                19          19
                20          20
                21          21
                22          22
                23          23
                24          24
                25          25
                26          26
                27          27
                28          28
                29          29
                30          30
                31          31
                32          32
                33          33
                34          34
                35          35
                36          36
                37          37
                38          38
                39          39
                40          40
                41          41
                42          42
                43          43
                44          44
                45          45
                46          46
                47          47
                48          48
                49          49
                50          50
                51          51
                52          52
                53          53
                54          54
                55          55
                56          56
                57          57
                58          58
                59          59
                60          60
                61          61
                62          62
                63          63
                64          64

----------------------------------------------------------------------------------------

 
 
 KPOINTS: K-Spacing Value to Generate K-Mesh: 0.03

Automatic generation of k-mesh.
 Grid dimensions read from file:
 generate k-points for:    3    3    5

 Generating k-lattice:

  Cartesian coordinates                     Fractional coordinates (reciprocal lattice)
     0.025329281  0.000000000  0.000000000     0.333333333  0.000000000  0.000000000
     0.000000000  0.025329281  0.000000000     0.000000000  0.333333333  0.000000000
     0.000000000  0.000000000  0.030395137     0.000000000  0.000000000  0.200000000

  Length of vectors
     0.025329281  0.025329281  0.030395137

  Shift w.r.t. Gamma in fractional coordinates (k-lattice)
     0.000000000  0.000000000  0.000000000

 
 Subroutine IBZKPT returns following result:
 ===========================================
 
 Found     23 irreducible k-points:
 
 Following reciprocal coordinates:
            Coordinates               Weight
  0.000000  0.000000  0.000000      1.000000
  0.333333  0.000000  0.000000      2.000000
  0.000000  0.333333  0.000000      2.000000
  0.333333  0.333333  0.000000      2.000000
 -0.333333  0.333333  0.000000      2.000000
  0.000000  0.000000  0.200000      2.000000
  0.333333  0.000000  0.200000      2.000000
  0.000000  0.333333  0.200000      2.000000
 -0.333333  0.000000  0.200000      2.000000
  0.000000 -0.333333  0.200000      2.000000
  0.333333  0.333333  0.200000      2.000000
 -0.333333  0.333333  0.200000      2.000000
 -0.333333 -0.333333  0.200000      2.000000
  0.333333 -0.333333  0.200000      2.000000
  0.000000  0.000000  0.400000      2.000000
  0.333333  0.000000  0.400000      2.000000
  0.000000  0.333333  0.400000      2.000000
 -0.333333  0.000000  0.400000      2.000000
  0.000000 -0.333333  0.400000      2.000000
  0.333333  0.333333  0.400000      2.000000
 -0.333333  0.333333  0.400000      2.000000
 -0.333333 -0.333333  0.400000      2.000000
  0.333333 -0.333333  0.400000      2.000000
 
 Following cartesian coordinates:
            Coordinates               Weight
  0.000000  0.000000  0.000000      1.000000
  0.025329  0.000000  0.000000      2.000000
  0.000000  0.025329  0.000000      2.000000
  0.025329  0.025329  0.000000      2.000000
 -0.025329  0.025329  0.000000      2.000000
  0.000000  0.000000  0.030395      2.000000
  0.025329  0.000000  0.030395      2.000000
  0.000000  0.025329  0.030395      2.000000
 -0.025329  0.000000  0.030395      2.000000
  0.000000 -0.025329  0.030395      2.000000
  0.025329  0.025329  0.030395      2.000000
 -0.025329  0.025329  0.030395      2.000000
 -0.025329 -0.025329  0.030395      2.000000
  0.025329 -0.025329  0.030395      2.000000
  0.000000  0.000000  0.060790      2.000000
  0.025329  0.000000  0.060790      2.000000
  0.000000  0.025329  0.060790      2.000000
 -0.025329  0.000000  0.060790      2.000000
  0.000000 -0.025329  0.060790      2.000000
  0.025329  0.025329  0.060790      2.000000
 -0.025329  0.025329  0.060790      2.000000
 -0.025329 -0.025329  0.060790      2.000000
  0.025329 -0.025329  0.060790      2.000000
 


--------------------------------------------------------------------------------------------------------




 Dimension of arrays:
   k-points           NKPTS =     23   k-points in BZ     NKDIM =     23   number of bands    NBANDS=    504
   number of dos      NEDOS =    301   number of ions     NIONS =     64
   non local maximal  LDIM  =      6   non local SUM 2l+1 LMDIM =     18
   total plane-waves  NPLWV = 176400
   max r-space proj   IRMAX =      1   max aug-charges    IRDMAX=   9034
   dimension x,y,z NGX =    70 NGY =   70 NGZ =   36
   dimension x,y,z NGXF=   140 NGYF=  140 NGZF=   72
   support grid    NGXF=   140 NGYF=  140 NGZF=   72
   ions per type =              12  22  15  15
   NGX,Y,Z   is equivalent  to a cutoff of   8.84,  8.84,  9.10 a.u.
   NGXF,Y,Z  is equivalent  to a cutoff of  17.69, 17.69, 18.19 a.u.

 SYSTEM =  unknown system                          
 POSCAR =  Nb-Mo-Ta-W alloy                        

 Startparameter for this run:
   NWRITE =      2    write-flag & timer
   PREC   = accura    normal or accurate (medium, high low for compatibility)
   ISTART =      0    job   : 0-new  1-cont  2-samecut
   ICHARG =      2    charge: 1-file 2-atom 10-const
   ISPIN  =      1    spin polarized calculation?
   LNONCOLLINEAR =      F non collinear calculations
   LSORBIT =      F    spin-orbit coupling
   INIWAV =      1    electr: 0-lowe 1-rand  2-diag
   LASPH  =      F    aspherical Exc in radial PAW
 Electronic Relaxation 1
   ENCUT  =  250.0 eV  18.37 Ry    4.29 a.u.  16.97 16.97  8.48*2*pi/ulx,y,z
   ENINI  =  250.0     initial cutoff
   ENAUG  =  455.7 eV  augmentation charge cutoff
   NELM   =     80;   NELMIN=  2; NELMDL= -5     # of ELM steps 
   EDIFF  = 0.1E-07   stopping-criterion for ELM
   LREAL  =      F    real-space projection
   NLSPLINE    = F    spline interpolate recip. space projectors
   LCOMPAT=      F    compatible to vasp.4.4
   GGA_COMPAT  = T    GGA compatible to vasp.4.4-vasp.4.6
   LMAXPAW     = -100 max onsite density
   LMAXMIX     =    2 max onsite mixed and CHGCAR
   VOSKOWN=      0    Vosko Wilk Nusair interpolation
   ROPT   =    0.00000   0.00000   0.00000   0.00000
 Ionic relaxation
   EDIFFG = -.1E-01   stopping-criterion for IOM
   NSW    =      0    number of steps for IOM
   NBLOCK =      1;   KBLOCK =      1    inner block; outer block 
   IBRION =     -1    ionic relax: 0-MD 1-quasi-New 2-CG
   NFREE  =      0    steps in history (QN), initial steepest desc. (CG)
   ISIF   =      2    stress and relaxation
   IWAVPR =     10    prediction:  0-non 1-charg 2-wave 3-comb
   ISYM   =      2    0-nonsym 1-usesym 2-fastsym
   LCORR  =      T    Harris-Foulkes like correction to forces

   POTIM  = 0.5000    time-step for ionic-motion
   TEIN   =    0.0    initial temperature
   TEBEG  =    0.0;   TEEND  =   0.0 temperature during run
   SMASS  =  -3.00    Nose mass-parameter (am)
   estimated Nose-frequenzy (Omega)   =  0.10E-29 period in steps = 0.13E+47 mass=  -0.396E-26a.u.
   SCALEE = 1.0000    scale energy and forces
   NPACO  =    256;   APACO  = 10.0  distance and # of slots for P.C.
   PSTRESS=    0.0 pullay stress

  Mass of Ions in am
   POMASS =  92.91 95.94180.95183.85
  Ionic Valenz
   ZVAL   =  13.00 14.00 11.00 14.00
  Atomic Wigner-Seitz radii
   RWIGS  =  -1.00 -1.00 -1.00 -1.00
  virtual crystal weights 
   VCA    =   1.00  1.00  1.00  1.00
   NELECT =     839.0000    total number of electrons
   NUPDOWN=      -1.0000    fix difference up-down

 DOS related values:
   EMIN   =  10.00;   EMAX   =-10.00  energy-range for DOS
   EFERMI =   0.00
   ISMEAR =     0;   SIGMA  =   0.02  broadening in eV -4-tet -1-fermi 0-gaus

 Electronic relaxation 2 (details)
   IALGO  =     38    algorithm
   LDIAG  =      T    sub-space diagonalisation (order eigenvalues)
   LSUBROT=      F    optimize rotation matrix (better conditioning)
   TURBO    =      0    0=normal 1=particle mesh
   IRESTART =      0    0=no restart 2=restart with 2 vectors
   NREBOOT  =      0    no. of reboots
   NMIN     =      0    reboot dimension
   EREF     =   0.00    reference energy to select bands
   IMIX   =      4    mixing-type and parameters
     AMIX     =   0.40;   BMIX     =  1.00
     AMIX_MAG =   1.60;   BMIX_MAG =  1.00
     AMIN     =   0.10
     WC   =   100.;   INIMIX=   1;  MIXPRE=   1;  MAXMIX= -45

 Intra band minimization:
   WEIMIN = 0.0000     energy-eigenvalue tresh-hold
   EBREAK =  0.50E-11  absolut break condition
   DEPER  =   0.30     relativ break condition  

   TIME   =   0.40     timestep for ELM

  volume/ion in A,a.u.               =      17.81       120.16
  Fermi-wavevector in a.u.,A,eV,Ry     =   1.478256  2.793498 29.731998  2.185240
  Thomas-Fermi vector in A             =   2.592559
 
 Write flags
   LWAVE        =      F    write WAVECAR
   LDOWNSAMPLE  =      F    k-point downsampling of WAVECAR
   LCHARG       =      F    write CHGCAR
   LVTOT        =      F    write LOCPOT, total local potential
   LVHAR        =      F    write LOCPOT, Hartree potential only
   LELF         =      F    write electronic localiz. function (ELF)
   LORBIT       =      0    0 simple, 1 ext, 2 COOP (PROOUT), +10 PAW based schemes


 Dipole corrections
   LMONO  =      F    monopole corrections only (constant potential shift)
   LDIPOL =      F    correct potential (dipole corrections)
   IDIPOL =      0    1-x, 2-y, 3-z, 4-all directions 
   EPSILON=  1.0000000 bulk dielectric constant

 Core level calculations are selected ICORELEVEL =  1
 Exchange correlation treatment:
   GGA     =    PE    GGA type
   LEXCH   =     8    internal setting for exchange type
   LIBXC   =     F    Libxc                    
   VOSKOWN =     0    Vosko Wilk Nusair interpolation
   LHFCALC =     F    Hartree Fock is set to
   LHFONE  =     F    Hartree Fock one center treatment
   AEXX    =    0.0000 exact exchange contribution

 Linear response parameters
   LEPSILON=     F    determine dielectric tensor
   LRPA    =     F    only Hartree local field effects (RPA)
   LNABLA  =     F    use nabla operator in PAW spheres
   LVEL    =     F    velocity operator in full k-point grid
   CSHIFT  =0.1000    complex shift for real part using Kramers Kronig
   OMEGAMAX=  -1.0    maximum frequency
   DEG_THRESHOLD= 0.2000000E-02 threshold for treating states as degnerate
   RTIME   =   -0.100 relaxation time in fs
  (WPLASMAI=    0.000 imaginary part of plasma frequency in eV, 0.658/RTIME)
   DFIELD  = 0.0000000 0.0000000 0.0000000 field for delta impulse in time
 
  Optional k-point grid parameters
   LKPOINTS_OPT  =     F    use optional k-point grid
   KPOINTS_OPT_MODE=     1    mode for optional k-point grid
 
 Orbital magnetization related:
   ORBITALMAG=     F  switch on orbital magnetization
   LCHIMAG   =     F  perturbation theory with respect to B field
   DQ        =  0.001000  dq finite difference perturbation B field
   LLRAUG    =     F  two centre corrections for induced B field



--------------------------------------------------------------------------------------------------------


 Static calculation
 charge density and potential will be updated during run
 non-spin polarized calculation
 Variant of blocked Davidson
 Davidson routine will perform the subspace rotation
 perform sub-space diagonalisation
    after iterative eigenvector-optimisation
 modified Broyden-mixing scheme, WC =      100.0
 initial mixing is a Kerker type mixing with AMIX =  0.4000 and BMIX =      1.0000
 Hartree-type preconditioning will be used
 using additional bands           84
 reciprocal scheme for non local part
 use partial core corrections
 calculate Harris-corrections to forces 
   (improved forces if not selfconsistent)
 use gradient corrections 
 use of overlap-Matrix (Vanderbilt PP)
 Gauss-broadening in eV      SIGMA  =   0.02


--------------------------------------------------------------------------------------------------------


  energy-cutoff  :      250.00
  volume of cell :     1139.56
      direct lattice vectors                 reciprocal lattice vectors
    13.160000000  0.000000000  0.000000000     0.075987842  0.000000000  0.000000000
     0.000000000 13.160000000  0.000000000     0.000000000  0.075987842  0.000000000
     0.000000000  0.000000000  6.580000000     0.000000000  0.000000000  0.151975684

  length of vectors
    13.160000000 13.160000000  6.580000000     0.075987842  0.075987842  0.151975684


 
 k-points in units of 2pi/SCALE and weight: K-Spacing Value to Generate K-Mesh: 0.03
   0.00000000  0.00000000  0.00000000       0.022
   0.02532928  0.00000000  0.00000000       0.044
   0.00000000  0.02532928  0.00000000       0.044
   0.02532928  0.02532928  0.00000000       0.044
  -0.02532928  0.02532928  0.00000000       0.044
   0.00000000  0.00000000  0.03039514       0.044
   0.02532928  0.00000000  0.03039514       0.044
   0.00000000  0.02532928  0.03039514       0.044
  -0.02532928  0.00000000  0.03039514       0.044
   0.00000000 -0.02532928  0.03039514       0.044
   0.02532928  0.02532928  0.03039514       0.044
  -0.02532928  0.02532928  0.03039514       0.044
  -0.02532928 -0.02532928  0.03039514       0.044
   0.02532928 -0.02532928  0.03039514       0.044
   0.00000000  0.00000000  0.06079027       0.044
   0.02532928  0.00000000  0.06079027       0.044
   0.00000000  0.02532928  0.06079027       0.044
  -0.02532928  0.00000000  0.06079027       0.044
   0.00000000 -0.02532928  0.06079027       0.044
   0.02532928  0.02532928  0.06079027       0.044
  -0.02532928  0.02532928  0.06079027       0.044
  -0.02532928 -0.02532928  0.06079027       0.044
   0.02532928 -0.02532928  0.06079027       0.044
 
 k-points in reciprocal lattice and weights: K-Spacing Value to Generate K-Mesh: 0.03
   0.00000000  0.00000000  0.00000000       0.022
   0.33333333  0.00000000  0.00000000       0.044
   0.00000000  0.33333333  0.00000000       0.044
   0.33333333  0.33333333  0.00000000       0.044
  -0.33333333  0.33333333  0.00000000       0.044
   0.00000000  0.00000000  0.20000000       0.044
   0.33333333  0.00000000  0.20000000       0.044
   0.00000000  0.33333333  0.20000000       0.044
  -0.33333333  0.00000000  0.20000000       0.044
   0.00000000 -0.33333333  0.20000000       0.044
   0.33333333  0.33333333  0.20000000       0.044
  -0.33333333  0.33333333  0.20000000       0.044
  -0.33333333 -0.33333333  0.20000000       0.044
   0.33333333 -0.33333333  0.20000000       0.044
   0.00000000  0.00000000  0.40000000       0.044
   0.33333333  0.00000000  0.40000000       0.044
   0.00000000  0.33333333  0.40000000       0.044
  -0.33333333  0.00000000  0.40000000       0.044
   0.00000000 -0.33333333  0.40000000       0.044
   0.33333333  0.33333333  0.40000000       0.044
  -0.33333333  0.33333333  0.40000000       0.044
  -0.33333333 -0.33333333  0.40000000       0.044
   0.33333333 -0.33333333  0.40000000       0.044
 
 position of ions in fractional coordinates (direct lattice) 
   0.00000000  0.75000000  0.50000000
   0.25000000  0.00000000  0.00000000
   0.62500000  0.87500000  0.25000000
   0.37500000  0.12500000  0.25000000
   0.75000000  0.25000000  0.00000000
   0.12500000  0.12500000  0.75000000
   0.87500000  0.37500000  0.75000000
   0.12500000  0.12500000  0.25000000
   0.00000000  0.00000000  0.50000000
   0.50000000  0.75000000  0.50000000
   0.75000000  0.75000000  0.00000000
   0.00000000  0.25000000  0.00000000
   0.50000000  0.50000000  0.00000000
   0.50000000  0.50000000  0.50000000
   0.25000000  0.25000000  0.50000000
   0.37500000  0.87500000  0.25000000
   0.12500000  0.37500000  0.75000000
   0.62500000  0.37500000  0.75000000
   0.62500000  0.62500000  0.25000000
   0.87500000  0.12500000  0.75000000
   0.75000000  0.00000000  0.00000000
   0.75000000  0.75000000  0.50000000
   0.62500000  0.87500000  0.75000000
   0.50000000  0.00000000  0.00000000
   0.87500000  0.12500000  0.25000000
   0.50000000  0.00000000  0.50000000
   0.37500000  0.87500000  0.75000000
   0.12500000  0.37500000  0.25000000
   0.25000000  0.00000000  0.50000000
   0.75000000  0.50000000  0.00000000
   0.37500000  0.12500000  0.75000000
   0.87500000  0.62500000  0.75000000
   0.25000000  0.50000000  0.00000000
   0.00000000  0.25000000  0.50000000
   0.50000000  0.25000000  0.00000000
   0.62500000  0.37500000  0.25000000
   0.37500000  0.62500000  0.25000000
   0.87500000  0.37500000  0.25000000
   0.37500000  0.62500000  0.75000000
   0.37500000  0.37500000  0.25000000
   0.25000000  0.25000000  0.00000000
   0.75000000  0.25000000  0.50000000
   0.87500000  0.87500000  0.75000000
   0.12500000  0.87500000  0.75000000
   0.87500000  0.87500000  0.25000000
   0.75000000  0.50000000  0.50000000
   0.87500000  0.62500000  0.25000000
   0.00000000  0.00000000  0.00000000
   0.00000000  0.50000000  0.00000000
   0.62500000  0.62500000  0.75000000
   0.25000000  0.50000000  0.50000000
   0.62500000  0.12500000  0.75000000
   0.00000000  0.75000000  0.00000000
   0.12500000  0.62500000  0.25000000
   0.12500000  0.87500000  0.25000000
   0.62500000  0.12500000  0.25000000
   0.12500000  0.62500000  0.75000000
   0.50000000  0.25000000  0.50000000
   0.75000000  0.00000000  0.50000000
   0.50000000  0.75000000  0.00000000
   0.00000000  0.50000000  0.50000000
   0.25000000  0.75000000  0.50000000
   0.37500000  0.37500000  0.75000000
   0.25000000  0.75000000  0.00000000
 
 position of ions in cartesian coordinates  (Angst):
   0.00000000  9.87000000  3.29000000
   3.29000000  0.00000000  0.00000000
   8.22500000 11.51500000  1.64500000
   4.93500000  1.64500000  1.64500000
   9.87000000  3.29000000  0.00000000
   1.64500000  1.64500000  4.93500000
  11.51500000  4.93500000  4.93500000
   1.64500000  1.64500000  1.64500000
   0.00000000  0.00000000  3.29000000
   6.58000000  9.87000000  3.29000000
   9.87000000  9.87000000  0.00000000
   0.00000000  3.29000000  0.00000000
   6.58000000  6.58000000  0.00000000
   6.58000000  6.58000000  3.29000000
   3.29000000  3.29000000  3.29000000
   4.93500000 11.51500000  1.64500000
   1.64500000  4.93500000  4.93500000
   8.22500000  4.93500000  4.93500000
   8.22500000  8.22500000  1.64500000
  11.51500000  1.64500000  4.93500000
   9.87000000  0.00000000  0.00000000
   9.87000000  9.87000000  3.29000000
   8.22500000 11.51500000  4.93500000
   6.58000000  0.00000000  0.00000000
  11.51500000  1.64500000  1.64500000
   6.58000000  0.00000000  3.29000000
   4.93500000 11.51500000  4.93500000
   1.64500000  4.93500000  1.64500000
   3.29000000  0.00000000  3.29000000
   9.87000000  6.58000000  0.00000000
   4.93500000  1.64500000  4.93500000
  11.51500000  8.22500000  4.93500000
   3.29000000  6.58000000  0.00000000
   0.00000000  3.29000000  3.29000000
   6.58000000  3.29000000  0.00000000
   8.22500000  4.93500000  1.64500000
   4.93500000  8.22500000  1.64500000
  11.51500000  4.93500000  1.64500000
   4.93500000  8.22500000  4.93500000
   4.93500000  4.93500000  1.64500000
   3.29000000  3.29000000  0.00000000
   9.87000000  3.29000000  3.29000000
  11.51500000 11.51500000  4.93500000
   1.64500000 11.51500000  4.93500000
  11.51500000 11.51500000  1.64500000
   9.87000000  6.58000000  3.29000000
  11.51500000  8.22500000  1.64500000
   0.00000000  0.00000000  0.00000000
   0.00000000  6.58000000  0.00000000
   8.22500000  8.22500000  4.93500000
   3.29000000  6.58000000  3.29000000
   8.22500000  1.64500000  4.93500000
   0.00000000  9.87000000  0.00000000
   1.64500000  8.22500000  1.64500000
   1.64500000 11.51500000  1.64500000
   8.22500000  1.64500000  1.64500000
   1.64500000  8.22500000  4.93500000
   6.58000000  3.29000000  3.29000000
   9.87000000  0.00000000  3.29000000
   6.58000000  9.87000000  0.00000000
   0.00000000  6.58000000  3.29000000
   3.29000000  9.87000000  3.29000000
   4.93500000  4.93500000  4.93500000
   3.29000000  9.87000000  0.00000000
 


--------------------------------------------------------------------------------------------------------


 k-point   1 :   0.0000 0.0000 0.0000  plane waves:   10181
 k-point   2 :   0.3333 0.0000 0.0000  plane waves:   10238
 k-point   3 :   0.0000 0.3333 0.0000  plane waves:   10238
 k-point   4 :   0.3333 0.3333 0.0000  plane waves:   10248
 k-point   5 :  -0.3333 0.3333 0.0000  plane waves:   10248
 k-point   6 :   0.0000 0.0000 0.2000  plane waves:   10193
 k-point   7 :   0.3333 0.0000 0.2000  plane waves:   10246
 k-point   8 :   0.0000 0.3333 0.2000  plane waves:   10246
 k-point   9 :  -0.3333 0.0000 0.2000  plane waves:   10246
 k-point  10 :   0.0000-0.3333 0.2000  plane waves:   10246
 k-point  11 :   0.3333 0.3333 0.2000  plane waves:   10238
 k-point  12 :  -0.3333 0.3333 0.2000  plane waves:   10238
 k-point  13 :  -0.3333-0.3333 0.2000  plane waves:   10238
 k-point  14 :   0.3333-0.3333 0.2000  plane waves:   10238
 k-point  15 :   0.0000 0.0000 0.4000  plane waves:   10201
 k-point  16 :   0.3333 0.0000 0.4000  plane waves:   10223
 k-point  17 :   0.0000 0.3333 0.4000  plane waves:   10223
 k-point  18 :  -0.3333 0.0000 0.4000  plane waves:   10223
 k-point  19 :   0.0000-0.3333 0.4000  plane waves:   10223
 k-point  20 :   0.3333 0.3333 0.4000  plane waves:   10193
 k-point  21 :  -0.3333 0.3333 0.4000  plane waves:   10193
 k-point  22 :  -0.3333-0.3333 0.4000  plane waves:   10193
 k-point  23 :   0.3333-0.3333 0.4000  plane waves:   10193

 maximum and minimum number of plane-waves per node :       880      830

 maximum number of plane-waves:     10248
 maximum index in each direction: 
   IXMAX=   17   IYMAX=   17   IZMAX=    8
   IXMIN=  -17   IYMIN=  -17   IZMIN=   -8


 parallel 3D FFT for wavefunctions:
    minimum data exchange during FFTs selected (reduces bandwidth)
 parallel 3D FFT for charge:
    minimum data exchange during FFTs selected (reduces bandwidth)


 total amount of memory used by VASP MPI-rank0    91346. kBytes
=======================================================================

   base      :      30000. kBytes
   nonl-proj :      12216. kBytes
   fftplans  :       1504. kBytes
   grid      :       2835. kBytes
   one-center:         93. kBytes
   wavefun   :      44698. kBytes
 
     INWAV:  cpu time      0.0000: real time      0.0000
 Broyden mixing: mesh for mixing (old mesh)
   NGX = 33   NGY = 33   NGZ = 17
  (NGX  =140   NGY  =140   NGZ  = 72)
  gives a total of  18513 points

 initial charge density was supplied:
 charge density of overlapping atoms calculated
 number of electron     839.0000000 magnetization 
 keeping initial charge density in first step


--------------------------------------------------------------------------------------------------------


 Maximum index for augmentation-charges          505 (set IRDMAX)


--------------------------------------------------------------------------------------------------------


 First call to EWALD:  gamma=   0.170
 Maximum number of real-space cells 2x 2x 4
 Maximum number of reciprocal cells 3x 3x 2

    FEWALD:  cpu time      0.0018: real time      0.0018


--------------------------------------- Iteration      1(   1)  ---------------------------------------


    POTLOK:  cpu time      0.2435: real time      0.3254
    SETDIJ:  cpu time      0.0083: real time      0.0084
     EDDAV:  cpu time     17.6208: real time     17.6764
       DOS:  cpu time      0.0079: real time      0.0079
    --------------------------------------------
      LOOP:  cpu time     17.8805: real time     18.0181

 eigenvalue-minimisations  : 23856
 total energy-change (2. order) : 0.8068920E+04  (-0.3310800E+05)
 number of electron     839.0000000 magnetization 
 augmentation part      839.0000000 magnetization 

 Free energy of the ion-electron system (eV)
  ---------------------------------------------------
  alpha Z        PSCENC =      7336.22103409
  Ewald energy   TEWEN  =    -87752.89023965
  -Hartree energ DENC   =    -16878.72444292
  -exchange      EXHF   =         0.00000000
  -V(xc)+E(xc)   XCENC  =      3352.79851317
  PAW double counting   =     82023.78620183   -80803.07705844
  entropy T*S    EENTRO =        -0.00313505
  eigenvalues    EBANDS =     -2526.96844238
  atomic energy  EATOM  =    103317.77709264
  Solvation  Ediel_sol  =         0.00000000
  ---------------------------------------------------
  free energy    TOTEN  =      8068.91952328 eV

  energy without entropy =     8068.92265833  energy(sigma->0) =     8068.92109080


--------------------------------------------------------------------------------------------------------




--------------------------------------- Iteration      1(   2)  ---------------------------------------


     EDDAV:  cpu time     18.5079: real time     18.5704
       DOS:  cpu time      0.0071: real time      0.0071
    --------------------------------------------
      LOOP:  cpu time     18.5150: real time     18.5775

 eigenvalue-minimisations  : 23368
 total energy-change (2. order) :-0.8097725E+04  (-0.7853523E+04)
 number of electron     839.0000000 magnetization 
 augmentation part      839.0000000 magnetization 

 Free energy of the ion-electron system (eV)
  ---------------------------------------------------
  alpha Z        PSCENC =      7336.22103409
  Ewald energy   TEWEN  =    -87752.89023965
  -Hartree energ DENC   =    -16878.72444292
  -exchange      EXHF   =         0.00000000
  -V(xc)+E(xc)   XCENC  =      3352.79851317
  PAW double counting   =     82023.78620183   -80803.07705844
  entropy T*S    EENTRO =        -0.00691045
  eigenvalues    EBANDS =    -10624.68945255
  atomic energy  EATOM  =    103317.77709264
  Solvation  Ediel_sol  =         0.00000000
  ---------------------------------------------------
  free energy    TOTEN  =       -28.80526229 eV

  energy without entropy =      -28.79835185  energy(sigma->0) =      -28.80180707


--------------------------------------------------------------------------------------------------------




--------------------------------------- Iteration      1(   3)  ---------------------------------------


     EDDAV:  cpu time     25.2523: real time     25.3377
       DOS:  cpu time      0.0079: real time      0.0079
    --------------------------------------------
      LOOP:  cpu time     25.2601: real time     25.3456

 eigenvalue-minimisations  : 34272
 total energy-change (2. order) :-0.6973340E+03  (-0.6542367E+03)
 number of electron     839.0000000 magnetization 
 augmentation part      839.0000000 magnetization 

 Free energy of the ion-electron system (eV)
  ---------------------------------------------------
  alpha Z        PSCENC =      7336.22103409
  Ewald energy   TEWEN  =    -87752.89023965
  -Hartree energ DENC   =    -16878.72444292
  -exchange      EXHF   =         0.00000000
  -V(xc)+E(xc)   XCENC  =      3352.79851317
  PAW double counting   =     82023.78620183   -80803.07705844
  entropy T*S    EENTRO =        -0.00877990
  eigenvalues    EBANDS =    -11322.02156636
  atomic energy  EATOM  =    103317.77709264
  Solvation  Ediel_sol  =         0.00000000
  ---------------------------------------------------
  free energy    TOTEN  =      -726.13924554 eV

  energy without entropy =     -726.13046565  energy(sigma->0) =     -726.13485560


--------------------------------------------------------------------------------------------------------




--------------------------------------- Iteration      1(   4)  ---------------------------------------


     EDDAV:  cpu time     22.6811: real time     22.7514
       DOS:  cpu time      0.0078: real time      0.0078
    --------------------------------------------
      LOOP:  cpu time     22.6889: real time     22.7593

 eigenvalue-minimisations  : 33424
 total energy-change (2. order) :-0.4842502E+02  (-0.4666020E+02)
 number of electron     839.0000000 magnetization 
 augmentation part      839.0000000 magnetization 

 Free energy of the ion-electron system (eV)
  ---------------------------------------------------
  alpha Z        PSCENC =      7336.22103409
  Ewald energy   TEWEN  =    -87752.89023965
  -Hartree energ DENC   =    -16878.72444292
  -exchange      EXHF   =         0.00000000
  -V(xc)+E(xc)   XCENC  =      3352.79851317
  PAW double counting   =     82023.78620183   -80803.07705844
  entropy T*S    EENTRO =        -0.00733469
  eigenvalues    EBANDS =    -11370.44803062
  atomic energy  EATOM  =    103317.77709264
  Solvation  Ediel_sol  =         0.00000000
  ---------------------------------------------------
  free energy    TOTEN  =      -774.56426460 eV

  energy without entropy =     -774.55692991  energy(sigma->0) =     -774.56059726


--------------------------------------------------------------------------------------------------------




--------------------------------------- Iteration      1(   5)  ---------------------------------------


     EDDAV:  cpu time     27.2878: real time     27.3783
       DOS:  cpu time      0.0080: real time      0.0081
    CHARGE:  cpu time      0.4486: real time      0.4500
    MIXING:  cpu time      0.0006: real time      0.0006
    --------------------------------------------
      LOOP:  cpu time     27.7451: real time     27.8369

 eigenvalue-minimisations  : 39304
 total energy-change (2. order) :-0.2991901E+01  (-0.2961320E+01)
 number of electron     838.9999749 magnetization 
 augmentation part      173.9008407 magnetization 

 Broyden mixing:
  rms(total) = 0.10582E+02    rms(broyden)= 0.10580E+02
  rms(prec ) = 0.10929E+02
  weight for this iteration     100.00

 Free energy of the ion-electron system (eV)
  ---------------------------------------------------
  alpha Z        PSCENC =      7336.22103409
  Ewald energy   TEWEN  =    -87752.89023965
  -Hartree energ DENC   =    -16878.72444292
  -exchange      EXHF   =         0.00000000
  -V(xc)+E(xc)   XCENC  =      3352.79851317
  PAW double counting   =     82023.78620183   -80803.07705844
  entropy T*S    EENTRO =        -0.00749325
  eigenvalues    EBANDS =    -11373.43977297
  atomic energy  EATOM  =    103317.77709264
  Solvation  Ediel_sol  =         0.00000000
  ---------------------------------------------------
  free energy    TOTEN  =      -777.55616551 eV

  energy without entropy =     -777.54867226  energy(sigma->0) =     -777.55241888


--------------------------------------------------------------------------------------------------------




--------------------------------------- Iteration      1(   6)  ---------------------------------------


    POTLOK:  cpu time      0.0171: real time      0.0174
    SETDIJ:  cpu time      0.0041: real time      0.0041
     EDDAV:  cpu time     21.8634: real time     21.9369
       DOS:  cpu time      0.0078: real time      0.0079
    CHARGE:  cpu time      0.4483: real time      0.4500
    MIXING:  cpu time      0.0009: real time      0.0009
    --------------------------------------------
      LOOP:  cpu time     22.3417: real time     22.4172

 eigenvalue-minimisations  : 28400
 total energy-change (2. order) : 0.2887935E+02  (-0.1026452E+02)
 number of electron     838.9999748 magnetization 
 augmentation part      181.2258828 magnetization 

 Broyden mixing:
  rms(total) = 0.39760E+01    rms(broyden)= 0.39750E+01
  rms(prec ) = 0.49678E+01
  weight for this iteration     100.00

 eigenvalues of (default mixing * dielectric matrix)
  average eigenvalue GAMMA=   1.4164
  1.4164

 Free energy of the ion-electron system (eV)
  ---------------------------------------------------
  alpha Z        PSCENC =      7336.22103409
  Ewald energy   TEWEN  =    -87752.89023965
  -Hartree energ DENC   =    -15919.46354262
  -exchange      EXHF   =         0.00000000
  -V(xc)+E(xc)   XCENC  =      3306.18831617
  PAW double counting   =     95362.32664698   -94265.23397842
  entropy T*S    EENTRO =        -0.00927408
  eigenvalues    EBANDS =    -12133.59287452
  atomic energy  EATOM  =    103317.77709264
  Solvation  Ediel_sol  =         0.00000000
  ---------------------------------------------------
  free energy    TOTEN  =      -748.67681942 eV

  energy without entropy =     -748.66754533  energy(sigma->0) =     -748.67218238


--------------------------------------------------------------------------------------------------------




--------------------------------------- Iteration      1(   7)  ---------------------------------------


    POTLOK:  cpu time      0.0173: real time      0.0176
    SETDIJ:  cpu time      0.0041: real time      0.0041
     EDDAV:  cpu time     23.9031: real time     23.9814
       DOS:  cpu time      0.0077: real time      0.0077
    CHARGE:  cpu time      0.4479: real time      0.4492
    MIXING:  cpu time      0.0008: real time      0.0008
    --------------------------------------------
      LOOP:  cpu time     24.3808: real time     24.4607

 eigenvalue-minimisations  : 32784
 total energy-change (2. order) :-0.2832447E+02  (-0.1267584E+02)
 number of electron     838.9999730 magnetization 
 augmentation part      181.2827276 magnetization 

 Broyden mixing:
  rms(total) = 0.32879E+01    rms(broyden)= 0.32851E+01
  rms(prec ) = 0.90621E+01
  weight for this iteration     100.00

 eigenvalues of (default mixing * dielectric matrix)
  average eigenvalue GAMMA=   0.9892
  1.5525  0.4260

 Free energy of the ion-electron system (eV)
  ---------------------------------------------------
  alpha Z        PSCENC =      7336.22103409
  Ewald energy   TEWEN  =    -87752.89023965
  -Hartree energ DENC   =    -15694.25680103
  -exchange      EXHF   =         0.00000000
  -V(xc)+E(xc)   XCENC  =      3291.78460084
  PAW double counting   =    103167.29630282  -102109.40812158
  entropy T*S    EENTRO =        -0.01306944
  eigenvalues    EBANDS =    -12333.51208670
  atomic energy  EATOM  =    103317.77709264
  Solvation  Ediel_sol  =         0.00000000
  ---------------------------------------------------
  free energy    TOTEN  =      -777.00128802 eV

  energy without entropy =     -776.98821857  energy(sigma->0) =     -776.99475329


--------------------------------------------------------------------------------------------------------




--------------------------------------- Iteration      1(   8)  ---------------------------------------


    POTLOK:  cpu time      0.0178: real time      0.0181
    SETDIJ:  cpu time      0.0041: real time      0.0042
     EDDAV:  cpu time     23.2436: real time     23.3141
       DOS:  cpu time      0.0072: real time      0.0072
    CHARGE:  cpu time      0.4471: real time      0.4485
    MIXING:  cpu time      0.0008: real time      0.0008
    --------------------------------------------
      LOOP:  cpu time     23.7205: real time     23.7928

 eigenvalue-minimisations  : 34184
 total energy-change (2. order) : 0.3823676E+02  (-0.9632786E+01)
 number of electron     838.9999742 magnetization 
 augmentation part      182.1301319 magnetization 

 Broyden mixing:
  rms(total) = 0.14208E+01    rms(broyden)= 0.14174E+01
  rms(prec ) = 0.24820E+01
  weight for this iteration     100.00

 eigenvalues of (default mixing * dielectric matrix)
  average eigenvalue GAMMA=   0.8737
  1.6709  0.6734  0.2768

 Free energy of the ion-electron system (eV)
  ---------------------------------------------------
  alpha Z        PSCENC =      7336.22103409
  Ewald energy   TEWEN  =    -87752.89023965
  -Hartree energ DENC   =    -15539.41731732
  -exchange      EXHF   =         0.00000000
  -V(xc)+E(xc)   XCENC  =      3285.28639448
  PAW double counting   =    106238.57084982  -105201.86933904
  entropy T*S    EENTRO =        -0.00977755
  eigenvalues    EBANDS =    -12422.43322393
  atomic energy  EATOM  =    103317.77709264
  Solvation  Ediel_sol  =         0.00000000
  ---------------------------------------------------
  free energy    TOTEN  =      -738.76452646 eV

  energy without entropy =     -738.75474891  energy(sigma->0) =     -738.75963769


--------------------------------------------------------------------------------------------------------




--------------------------------------- Iteration      1(   9)  ---------------------------------------


    POTLOK:  cpu time      0.0167: real time      0.0170
[...]
 -0.001  -0.013  -0.009   0.000   0.002   0.010  -0.003  -0.000   3.452   0.027   0.013   0.034  -0.002  -1.472  -0.005  -0.007
  0.008   0.024   0.001   0.001   0.000  -0.003   0.003  -0.003   0.027   3.453   0.028  -0.026  -0.053  -0.005  -1.474  -0.013
 -0.001  -0.013   0.004   0.001  -0.001  -0.009  -0.001   0.004   0.013   0.028   2.628   0.029   0.018  -0.007  -0.012  -1.204
  0.007   0.023  -0.000  -0.008   0.001  -0.002   0.007  -0.004   0.034  -0.026   0.029   3.488   0.050  -0.008   0.017  -0.013
  0.000  -0.012   0.008   0.000   0.002  -0.017  -0.000  -0.008  -0.002  -0.053   0.018   0.050   2.654   0.002   0.024  -0.008
  0.001   0.008   0.005   0.000  -0.001  -0.006   0.002   0.001  -1.472  -0.005  -0.007  -0.008   0.002   0.640   0.000   0.004
 -0.007  -0.008  -0.000  -0.000   0.000   0.002  -0.001   0.001  -0.005  -1.474  -0.012   0.017   0.024   0.000   0.641   0.005
  0.001   0.005  -0.002  -0.000   0.000   0.003   0.001  -0.001  -0.007  -0.013  -1.204  -0.013  -0.008   0.004   0.005   0.559
 -0.006  -0.008   0.000   0.005  -0.000   0.001  -0.005   0.002  -0.008   0.016  -0.012  -1.482  -0.022   0.002  -0.009   0.005
 -0.000   0.006  -0.004  -0.000  -0.001   0.006  -0.000   0.002   0.002   0.024  -0.008  -0.023  -1.211  -0.001  -0.011   0.004


------------------------ aborting loop because EDIFF is reached ----------------------------------------


    CHARGE:  cpu time      0.4902: real time      0.5918
    FORLOC:  cpu time      0.0046: real time      0.0046
    FORNL :  cpu time     16.9539: real time     17.1036
    STRESS:  cpu time     16.3627: real time     16.4332
    FORCOR:  cpu time      0.0409: real time      0.0410
    FORHAR:  cpu time      0.1071: real time      0.1074
    MIXING:  cpu time      0.0017: real time      0.0017
    OFIELD:  cpu time      0.0000: real time      0.0000

  FORCE on cell =-STRESS in cart. coord.  units (eV):
  Direction    XX          YY          ZZ          XY          YZ          ZX
  --------------------------------------------------------------------------------------
  Alpha Z  7336.22103  7336.22103  7336.22103
  Ewald  -29336.59071-29257.75350-29158.99567    93.50448    42.72535    -5.25688
  Hartree  5074.85865  5149.56859  5249.37315    89.97857    39.78716    -5.04802
  E(xc)   -3870.09000 -3870.12173 -3870.12768    -0.11448    -0.06736     0.01649
  Local    6798.17796  6645.46786  6447.99866  -179.35339   -80.08180    10.83961
  n-local -1474.70849 -1475.01051 -1476.89538    -2.47402    -1.27849    -1.23024
  augment  2286.26481  2286.14769  2286.05881    -0.96619    -0.40664    -0.14559
  Kinetic 13070.50834 13069.91314 13070.42948     2.01629     0.20338     1.03041
  Fock        0.00000     0.00000     0.00000     0.00000     0.00000     0.00000
  -------------------------------------------------------------------------------------
  Total    -115.35839  -115.56742  -115.93759     2.59125     0.88160     0.20578
  in kB    -162.18926  -162.48314  -163.00359     3.64320     1.23949     0.28931
  external pressure =     -162.56 kB  Pullay stress =        0.00 kB


 VOLUME and BASIS-vectors are now :
 -----------------------------------------------------------------------------
  energy-cutoff  :      250.00
  volume of cell :     1139.56
      direct lattice vectors                 reciprocal lattice vectors
    13.160000000  0.000000000  0.000000000     0.075987842  0.000000000  0.000000000
     0.000000000 13.160000000  0.000000000     0.000000000  0.075987842  0.000000000
     0.000000000  0.000000000  6.580000000     0.000000000  0.000000000  0.151975684

  length of vectors
    13.160000000 13.160000000  6.580000000     0.075987842  0.075987842  0.151975684


 FORCES acting on ions
    electron-ion (+dipol)            ewald-force                    non-local-force                 convergence-correction
 -----------------------------------------------------------------------------------------------
   0.930E+02 -.594E+02 0.181E+01   -.924E+02 0.591E+02 -.183E+01   -.184E+00 -.255E+00 0.145E-01   -.141E-03 0.196E-03 0.656E-04
   0.126E+03 -.509E+02 0.162E+02   -.125E+03 0.506E+02 -.162E+02   0.349E+00 -.127E+00 0.127E-01   0.265E-03 -.468E-03 -.164E-05
   -.951E+02 0.403E+02 0.533E+00   0.953E+02 -.398E+02 -.533E+00   -.315E+00 -.139E+00 -.364E-01   -.273E-03 0.581E-03 0.164E-03
   0.350E+02 -.123E+03 0.655E+02   -.349E+02 0.123E+03 -.648E+02   0.150E+00 -.423E+00 -.742E-01   0.374E-03 -.419E-03 0.320E-03
   -.267E+02 -.112E+03 -.498E+02   0.262E+02 0.111E+03 0.495E+02   0.259E+00 0.123E+00 -.814E-01   -.174E-03 -.806E-03 0.222E-03
   0.584E+02 0.309E+02 -.666E+02   -.581E+02 -.310E+02 0.659E+02   -.625E-01 0.322E+00 -.533E-01   -.419E-04 0.261E-03 -.243E-03
   0.484E+02 -.209E+02 0.557E+01   -.480E+02 0.211E+02 -.580E+01   -.637E-02 -.168E+00 0.118E+00   0.925E-03 -.872E-05 -.435E-03
   0.503E+02 0.305E+01 0.666E+02   -.498E+02 -.287E+01 -.659E+02   -.405E+00 -.158E-02 0.566E-01   -.403E-04 0.238E-03 0.241E-03
   0.303E+02 0.655E+02 -.245E+02   -.307E+02 -.655E+02 0.243E+02   0.638E-01 0.577E+00 0.231E-01   -.427E-03 -.437E-03 0.293E-04
   0.159E+02 0.973E+02 0.127E+02   -.157E+02 -.970E+02 -.124E+02   -.116E-02 0.203E+00 -.113E+00   -.193E-03 0.602E-03 -.120E-03
   -.139E+03 0.581E+01 -.387E+02   0.138E+03 -.624E+01 0.382E+02   -.444E-03 0.954E-01 0.103E+00   0.128E-03 0.669E-03 -.805E-05
   0.362E+02 -.210E+02 -.216E+02   -.361E+02 0.211E+02 0.216E+02   0.604E-01 -.857E-01 -.574E-01   0.676E-03 0.134E-03 0.738E-04
   0.155E+02 0.701E+02 -.632E+02   -.152E+02 -.705E+02 0.628E+02   0.484E-01 0.360E+00 0.309E-02   -.450E-03 0.256E-03 0.194E-03
   -.132E+02 0.388E+02 0.632E+02   0.138E+02 -.385E+02 -.628E+02   -.218E+00 -.364E+00 -.732E-03   -.409E-03 0.167E-03 -.193E-03
   0.720E+00 -.153E+02 0.414E+02   -.581E+00 0.157E+02 -.411E+02   -.170E+00 -.386E-02 0.481E-01   -.572E-03 0.539E-03 -.381E-04
   0.332E+02 0.318E+02 0.360E+01   -.329E+02 -.320E+02 -.364E+01   -.260E+00 0.143E+00 0.416E-01   0.636E-03 0.197E-03 0.235E-03
   0.554E+02 0.252E+02 -.703E+02   -.554E+02 -.251E+02 0.698E+02   0.469E+00 0.256E+00 -.156E-01   0.233E-03 -.122E-03 -.328E-03
   -.846E+02 0.208E+02 0.164E+02   0.846E+02 -.206E+02 -.165E+02   -.527E+00 0.128E+00 0.962E-01   -.633E-03 -.920E-04 -.346E-03
   -.792E+02 0.948E+02 -.281E+02   0.790E+02 -.948E+02 0.279E+02   -.172E-01 -.539E-01 -.114E-01   -.468E-03 0.618E-03 0.112E-03
   -.469E+02 -.811E+01 -.134E+02   0.469E+02 0.790E+01 0.131E+02   -.399E+00 -.725E-01 0.580E-01   0.225E-03 -.903E-03 -.275E-03
   -.152E+03 0.387E+02 -.131E+02   0.153E+03 -.383E+02 0.130E+02   -.382E+00 0.115E-01 -.429E-01   0.435E-04 -.446E-03 0.125E-03
   -.143E+03 0.288E+02 0.413E+02   0.143E+03 -.294E+02 -.411E+02   -.147E+00 0.316E+00 0.922E-01   0.356E-03 0.735E-03 -.483E-05
   -.999E+02 0.405E+02 -.577E+00   0.100E+03 -.403E+02 0.574E+00   -.384E+00 0.333E-01 0.265E-01   -.234E-03 0.544E-03 -.166E-03
   -.237E+01 -.656E+02 -.220E+02   0.226E+01 0.661E+02 0.217E+02   0.265E+00 -.450E+00 -.162E-01   0.268E-03 -.488E-03 0.190E-03
   -.381E+02 -.305E+02 0.134E+02   0.382E+02 0.303E+02 -.131E+02   -.302E+00 0.268E-01 -.370E-01   0.134E-03 -.784E-03 0.271E-03
   -.153E+02 -.342E+02 0.220E+02   0.155E+02 0.341E+02 -.217E+02   -.255E-01 0.235E+00 0.443E-01   0.304E-03 -.416E-03 -.196E-03
   0.647E+02 0.392E+02 -.360E+01   -.650E+02 -.397E+02 0.364E+01   0.340E+00 0.453E+00 -.381E-01   0.569E-03 0.207E-03 -.239E-03
   0.501E+02 0.226E+02 0.703E+02   -.500E+02 -.226E+02 -.698E+02   0.922E-01 0.328E+00 0.625E-03   0.227E-03 -.103E-03 0.324E-03
   0.121E+03 -.238E+02 -.174E+02   -.121E+03 0.234E+02 0.174E+02   0.619E+00 0.494E-01 0.880E-02   0.284E-03 -.385E-03 -.287E-05
   -.910E+02 0.752E+02 -.816E+02   0.911E+02 -.749E+02 0.815E+02   -.340E+00 0.138E+00 -.124E+00   0.628E-04 0.569E-03 0.132E-03
   0.463E+02 -.103E+03 -.702E+02   -.463E+02 0.103E+03 0.698E+02   0.444E+00 -.138E+00 -.120E+00   0.274E-03 -.447E-03 -.324E-03
   -.281E+01 0.359E+02 -.563E+00   0.290E+01 -.359E+02 0.574E+00   -.159E+00 0.141E+00 -.122E-01   0.451E-03 0.727E-03 -.339E-03
   -.457E+02 0.289E+02 -.330E+02   0.451E+02 -.292E+02 0.328E+02   0.153E+00 0.292E+00 -.508E-02   -.369E-03 -.361E-03 0.126E-03
   0.831E+02 -.200E+02 0.233E+02   -.835E+02 0.198E+02 -.233E+02   0.372E+00 0.302E+00 -.768E-02   0.686E-03 0.233E-03 -.758E-04
   -.947E+00 -.818E+02 -.566E+02   0.120E+01 0.817E+02 0.559E+02   -.111E+00 -.114E+00 -.454E-01   -.431E-04 -.305E-03 0.165E-03
   -.627E+02 0.148E+02 -.130E+02   0.622E+02 -.143E+02 0.130E+02   -.817E-01 -.150E-01 -.483E-01   -.503E-03 -.138E-03 0.269E-03
   -.130E+02 0.561E+02 -.536E+01   0.128E+02 -.565E+02 0.521E+01   -.542E-01 0.207E+00 -.538E-01   0.254E-05 0.109E-03 0.155E-03
   0.596E+02 -.360E+02 -.464E+01   -.597E+02 0.365E+02 0.491E+01   0.237E+00 -.305E+00 -.636E-01   0.742E-03 -.822E-04 0.360E-03
   -.607E+01 0.325E+02 0.532E+01   0.592E+01 -.328E+02 -.521E+01   0.144E+00 -.124E+00 0.100E+00   0.470E-05 0.139E-03 -.154E-03
   -.366E+02 0.232E+02 0.472E+02   0.368E+02 -.227E+02 -.468E+02   -.199E+00 0.159E+00 0.253E-02   -.460E-03 0.948E-04 0.218E-03
   -.711E+01 -.666E+01 -.328E+02   0.715E+01 0.688E+01 0.323E+02   -.100E-02 0.197E+00 -.210E-01   -.391E-03 0.501E-03 0.197E-04
   -.300E+02 -.112E+03 0.422E+02   0.298E+02 0.112E+03 -.419E+02   0.167E-01 -.330E+00 0.465E-01   -.671E-04 -.664E-03 -.189E-03
   -.827E+02 -.416E+01 -.157E+02   0.826E+02 0.418E+01 0.157E+02   -.329E+00 -.455E-01 0.220E-01   0.568E-05 0.197E-03 -.130E-03
   0.110E+03 -.420E+02 -.182E+02   -.110E+03 0.417E+02 0.181E+02   0.279E+00 -.236E+00 -.377E-01   -.235E-03 0.770E-05 -.197E-03
   -.581E+02 0.142E+02 0.157E+02   0.574E+02 -.145E+02 -.157E+02   0.215E+00 0.205E+00 -.161E-01   -.446E-04 0.252E-03 0.134E-03
   -.552E+02 0.716E+02 0.646E+02   0.547E+02 -.715E+02 -.640E+02   0.125E+00 0.199E+00 0.127E-01   0.913E-04 0.368E-03 -.675E-04
   0.467E+01 0.459E+02 0.456E+00   -.458E+01 -.458E+02 -.451E+00   0.551E-02 0.581E-01 -.170E-01   0.336E-03 0.487E-03 0.255E-03
   0.156E+02 0.431E+02 0.207E+02   -.156E+02 -.427E+02 -.206E+02   -.357E+00 -.852E-01 0.102E+00   -.336E-03 -.344E-03 -.242E-04
   0.958E+02 0.229E+02 -.407E+02   -.951E+02 -.229E+02 0.404E+02   -.175E-01 0.159E+00 0.816E-02   0.632E-03 -.560E-04 0.531E-04
   -.570E+02 0.723E+02 0.281E+02   0.565E+02 -.724E+02 -.279E+02   0.167E+00 0.167E-01 0.519E-01   -.335E-03 0.633E-03 -.117E-03
   -.671E+02 -.203E+01 0.330E+02   0.666E+02 0.184E+01 -.328E+02   -.174E+00 -.432E-01 0.310E-01   -.466E-03 -.379E-03 -.117E-03
   -.621E+02 -.134E+03 -.122E+02   0.620E+02 0.133E+03 0.120E+02   -.837E-01 -.185E+00 -.230E-01   -.265E-03 -.109E-02 -.383E-03
   0.102E+03 -.610E+02 -.193E+01   -.102E+03 0.607E+02 0.197E+01   0.541E+00 -.208E+00 -.188E-01   -.260E-03 0.387E-03 -.606E-04
   0.897E+02 0.249E+02 0.220E+02   -.895E+02 -.249E+02 -.219E+02   0.133E+00 -.678E-03 -.333E-01   0.891E-05 -.235E-03 0.395E-03
   0.143E+03 -.506E+02 0.231E+02   -.143E+03 0.506E+02 -.230E+02   0.463E+00 -.528E+00 -.110E-01   -.235E-03 -.112E-04 0.229E-03
   -.534E+02 -.156E+03 0.122E+02   0.530E+02 0.156E+03 -.120E+02   0.231E+00 -.190E+00 0.433E-01   -.280E-03 -.112E-02 0.374E-03
   0.675E+02 -.507E+01 -.220E+02   -.669E+02 0.534E+01 0.219E+02   -.665E-01 -.331E+00 0.324E-01   -.997E-04 -.271E-03 -.399E-03
   -.457E+02 -.109E+03 0.716E+02   0.462E+02 0.109E+03 -.712E+02   -.252E+00 -.213E+00 0.171E+00   -.117E-03 -.397E-03 -.196E-03
   -.139E+03 0.230E+02 0.132E+02   0.139E+03 -.222E+02 -.130E+02   -.431E+00 -.590E-01 0.241E-01   -.125E-03 -.321E-03 -.121E-03
   0.149E+02 0.996E+02 -.136E+02   -.144E+02 -.996E+02 0.134E+02   -.316E+00 0.111E+00 -.292E-01   -.112E-03 0.623E-03 0.114E-03
   0.150E+03 0.134E+02 0.515E+02   -.150E+03 -.129E+02 -.514E+02   0.465E+00 -.334E+00 0.815E-01   0.768E-03 -.663E-04 -.659E-04
   0.259E+02 0.412E+02 -.259E+02   -.261E+02 -.410E+02 0.258E+02   0.155E-01 -.865E-01 -.556E-01   0.339E-04 0.216E-03 -.785E-04
   -.226E+02 0.218E+02 -.598E+02   0.226E+02 -.213E+02 0.595E+02   -.116E+00 -.150E+00 -.855E-01   -.661E-03 0.798E-04 -.280E-03
   0.319E+02 0.345E+02 0.259E+02   -.322E+02 -.340E+02 -.258E+02   0.147E+00 -.195E+00 0.683E-01   0.157E-03 0.191E-03 0.914E-04
 -----------------------------------------------------------------------------------------------
   0.258E-01 0.215E+00 -.139E+00   0.625E-12 -.227E-12 -.188E-12   -.260E-01 -.214E+00 0.139E+00   0.443E-03 -.406E-03 -.260E-03
 
 
 POSITION                                       TOTAL-FORCE (eV/Angst)
 -----------------------------------------------------------------------------------
      0.00000      9.87000      3.29000         0.485802     -0.548202     -0.006629
      3.29000      0.00000      0.00000         0.522978     -0.436737      0.022761
      8.22500     11.51500      1.64500        -0.119395      0.392525     -0.036184
      4.93500      1.64500      1.64500         0.237836     -0.395266      0.659471
      9.87000      3.29000      0.00000        -0.186137     -0.678270     -0.325448
      1.64500      1.64500      4.93500         0.259289      0.255762     -0.763780
     11.51500      4.93500      4.93500         0.336289      0.021486     -0.117316
      1.64500      1.64500      1.64500         0.100100      0.179034      0.733430
      0.00000      0.00000      3.29000        -0.268222      0.505418     -0.212107
      6.58000      9.87000      3.29000         0.150332      0.485835      0.195652
      9.87000      9.87000      0.00000        -0.572211     -0.339997     -0.385192
      0.00000      3.29000      0.00000         0.145282      0.012833     -0.081913
      6.58000      6.58000      0.00000         0.330461     -0.030202     -0.367103
      6.58000      6.58000      3.29000         0.310772     -0.039878      0.380584
      3.29000      3.29000      3.29000        -0.031913      0.411859      0.309184
      4.93500     11.51500      1.64500        -0.043327     -0.078481     -0.000229
      1.64500      4.93500      4.93500         0.379165      0.389185     -0.503966
      8.22500      4.93500      4.93500        -0.516921      0.323890     -0.042674
      8.22500      8.22500      1.64500        -0.148495     -0.120669     -0.161520
     11.51500      1.64500      4.93500        -0.388920     -0.280234     -0.196867
      9.87000      0.00000      0.00000        -0.225458      0.374857     -0.138043
      9.87000      9.87000      3.29000        -0.312716     -0.281914      0.300825
      8.22500     11.51500      4.93500        -0.117869      0.201680      0.023397
      6.58000      0.00000      0.00000         0.158414      0.071523     -0.284277
     11.51500      1.64500      1.64500        -0.208834     -0.199337      0.187902
      6.58000      0.00000      3.29000         0.166667      0.123376      0.295051
      4.93500     11.51500      4.93500        -0.034954     -0.046651      0.002167
      1.64500      4.93500      1.64500         0.257914      0.361636      0.461644
      3.29000      0.00000      3.29000         0.472919     -0.294575     -0.006909
      9.87000      6.58000      0.00000        -0.218389      0.439260     -0.301506
      4.93500      1.64500      4.93500         0.431060     -0.122883     -0.482569
     11.51500      8.22500      4.93500        -0.074422      0.103577     -0.002434
      3.29000      6.58000      0.00000        -0.528811     -0.000923     -0.177997
      0.00000      3.29000      3.29000        -0.018654      0.067657      0.028210
      6.58000      3.29000      0.00000         0.144087     -0.268237     -0.728886
      8.22500      4.93500      1.64500        -0.604581      0.530117     -0.047916
      4.93500      8.22500      1.64500        -0.305061     -0.278273     -0.204059
     11.51500      4.93500      1.64500         0.183105      0.259424      0.203214
      4.93500      8.22500      4.93500        -0.006492     -0.338821      0.207833
      4.93500      4.93500      1.64500         0.007624      0.572896      0.457010
      3.29000      3.29000      0.00000         0.036180      0.415175     -0.483551
      9.87000      3.29000      3.29000        -0.192925     -0.712281      0.349586
     11.51500     11.51500      4.93500        -0.436555     -0.026870      0.000270
      1.64500     11.51500      4.93500         0.536367     -0.559588     -0.110510
     11.51500     11.51500      1.64500        -0.452392     -0.106581      0.000789
      9.87000      6.58000      3.29000        -0.434703      0.325626      0.602295
     11.51500      8.22500      1.64500         0.094644      0.105306     -0.011059
      0.00000      0.00000      0.00000        -0.307103      0.353813      0.237601
      0.00000      6.58000      0.00000         0.728440      0.146496     -0.290005
      8.22500      8.22500      4.93500        -0.337498     -0.135082      0.242740
      3.29000      6.58000      3.29000        -0.666477     -0.224447      0.246663
      8.22500      1.64500      4.93500        -0.233011     -0.687660     -0.243051
      0.00000      9.87000      0.00000         0.409984     -0.440164      0.021247
      1.64500      8.22500      1.64500         0.352750     -0.006849      0.050978
      1.64500     11.51500      1.64500         0.401536     -0.551514      0.022881
      8.22500      1.64500      1.64500        -0.153080     -0.592079      0.225880
      1.64500      8.22500      4.93500         0.524928     -0.066616     -0.041850
      6.58000      3.29000      3.29000         0.206493     -0.321883      0.576542
      9.87000      0.00000      3.29000        -0.417350      0.794872      0.197040
      6.58000      9.87000      0.00000         0.158252      0.148555     -0.251154
      0.00000      6.58000      3.29000         0.533774      0.176797      0.179106
      3.29000      9.87000      3.29000        -0.197685      0.042162     -0.178589
      4.93500      4.93500      4.93500        -0.136752      0.399908     -0.402731
      3.29000      9.87000      0.00000        -0.166128      0.218624      0.166070
 -----------------------------------------------------------------------------------
    total drift:                                0.000187      0.000019     -0.000008


--------------------------------------------------------------------------------------------------------



  FREE ENERGIE OF THE ION-ELECTRON SYSTEM (eV)
  ---------------------------------------------------
  free  energy   TOTEN  =      -736.58410552 eV

  energy  without entropy=     -736.57585854  energy(sigma->0) =     -736.57998203
 


--------------------------------------------------------------------------------------------------------


    POTLOK:  cpu time      0.2666: real time      0.2677


--------------------------------------------------------------------------------------------------------


     LOOP+:  cpu time    826.3437: real time    842.1843
    4ORBIT:  cpu time      0.0000: real time      0.0000

 total amount of memory used by VASP MPI-rank0    91346. kBytes
=======================================================================

   base      :      30000. kBytes
   nonl-proj :      12216. kBytes
   fftplans  :       1504. kBytes
   grid      :       2835. kBytes
   one-center:         93. kBytes
   wavefun   :      44698. kBytes
 
  
  
 General timing and accounting informations for this job:
 ========================================================
  
                  Total CPU time used (sec):      840.236
                            User time (sec):      831.749
                          System time (sec):        8.487
                         Elapsed time (sec):      857.342
  
                   Maximum memory used (kb):      150996.
                   Average memory used (kb):          N/A
  
                          Minor page faults:        43516
                          Major page faults:            0
                 Voluntary context switches:          257
