 vasp.6.3.1 04May22 (build Jul 26 2022 04:02:40) complex                        
  
 executed on             LinuxIFC date 2023.11.30  02:13:39
 running on   48 total cores
 distrk:  each k-point on   48 cores,    1 groups
 distr:  one band on NCORE=  12 cores,    4 groups


--------------------------------------------------------------------------------------------------------


 INCAR:
   ISTART = 0
   NWRITE = 2
   PREC = Accurate
   ENCUT = 250
   GGA = PE
   NSW = 0
   ISIF = 2
   ISYM = 2
   NBLOCK = 1
   KBLOCK = 1
   IBRION = -1
   NELM = 80
   EDIFF = 1E-08
   EDIFFG = -0.01
   ALGO = Normal
   LDIAG = .TRUE.
   LREAL = .FALSE.
   ISMEAR = 0
   SIGMA = 0.02
   ICHARG = 2
   LPLANE = .TRUE.
   NPAR = 4
   LSCALU = .FALSE.
   NSIM = 4
   LWAVE = .FALSE.
   LCHARG = .FALSE.
   ICORELEVEL = 1

 POTCAR:    PAW_PBE Nb_sv 25May2007               
 POTCAR:    PAW_PBE Mo_sv 02Feb2006               
 POTCAR:    PAW_PBE Ta_pv 07Sep2000               
 POTCAR:    PAW_PBE W_sv 04Sep2015                
 POTCAR:    PAW_PBE Nb_sv 25May2007               
   SHA256 =  0e8fc07c9fcd1164cf2ade22d0399fd28f85e91cd773dfa6cf24839a48c95e24 Nb_sv/POTCAR          
   COPYR  = (c) Copyright 25May2007 Georg Kresse                                                    
   COPYR  = This file is part of the software VASP. Any use, copying, and all other rights are regul
   COPYR  = If you do not have a valid VASP license, you may not use, copy or distribute this file. 
   VRHFIN =Nb: 4p5s4d                                                                               
   LEXCH  = PE                                                                                      
   EATOM  =  1555.1913 eV,  114.3033 Ry                                                             
                                                                                                    
   TITEL  = PAW_PBE Nb_sv 25May2007                                                                 
   LULTRA =        F    use ultrasoft PP ?                                                          
   IUNSCR =        1    unscreen: 0-lin 1-nonlin 2-no                                               
   RPACOR =    1.800    partial core radius                                                         
   POMASS =   92.910; ZVAL   =   13.000    mass and valenz                                          
   RCORE  =    2.400    outmost cutoff radius                                                       
   RWIGS  =    2.400; RWIGS  =    1.270    wigner-seitz radius (au A)                               
   ENMAX  =  293.235; ENMIN  =  219.927 eV                                                          
   ICORE  =        3    local potential                                                             
   LCOR   =        T    correct aug charges                                                         
   LPAW   =        T    paw PP                                                                      
   EAUG   =  455.659                                                                                
   DEXC   =    0.000                                                                                
   RMAX   =    2.456    core radius for proj-oper                                                   
   RAUG   =    1.300    factor for augmentation sphere                                              
   RDEP   =    2.451    radius for radial grids                                                     
   RDEPT  =    1.956    core radius for aug-charge                                                  
                                                                                                    
   Atomic configuration                                                                             
   11 entries                                                                                       
     n  l   j            E        occ.                                                              
     1  0  0.50    -18805.2457   2.0000                                                             
     2  0  0.50     -2630.2869   2.0000                                                             
     2  1  1.50     -2348.4046   6.0000                                                             
     3  0  0.50      -438.8757   2.0000                                                             
     3  1  1.50      -346.7588   6.0000                                                             
     3  2  2.50      -196.2560  10.0000                                                             
     4  0  0.50       -58.3859   2.0000                                                             
     5  0  0.50        -3.9816   1.0000                                                             
     4  1  1.50       -34.5141   6.0000                                                             
     4  2  2.50        -3.0408   4.0000                                                             
     4  3  2.50        -1.3606   0.0000                                                             
   Description                                                                                      
     l       E           TYP  RCUT    TYP  RCUT                                                     
     0    -58.3859094     23  2.200                                                                 
     0     -3.9816262     23  2.200                                                                 
     1    -34.5140738     23  2.200                                                                 
     1     13.6058260     23  2.200                                                                 
     2     -3.0408010     23  2.200                                                                 
     2     -0.1283038     23  2.200                                                                 
     3     -1.3605826     23  2.400                                                                 
  local pseudopotential read in
  partial core-charges read in
  partial kinetic energy density read in
  atomic valenz-charges read in
  non local Contribution for L=           0  read in
    real space projection operators read in
  non local Contribution for L=           0  read in
    real space projection operators read in
  non local Contribution for L=           1  read in
    real space projection operators read in
  non local Contribution for L=           1  read in
    real space projection operators read in
  non local Contribution for L=           2  read in
    real space projection operators read in
  non local Contribution for L=           2  read in
    real space projection operators read in
    PAW grid and wavefunctions read in
 
   number of l-projection  operators is LMAX  =           6
   number of lm-projection operators is LMMAX =          18
 
 POTCAR:    PAW_PBE Mo_sv 02Feb2006               
   SHA256 =  2731df97e41766cc617548c5a8267718fdef1f509ac6bafa01e745abea2bdfaa Mo_sv/POTCAR          
   COPYR  = (c) Copyright 02Feb2006 Georg Kresse                                                    
   COPYR  = This file is part of the software VASP. Any use, copying, and all other rights are regul
   COPYR  = If you do not have a valid VASP license, you may not use, copy or distribute this file. 
   VRHFIN =Mo: 4p5s4d                                                                               
   LEXCH  = PE                                                                                      
   EATOM  =  1862.2866 eV,  136.8742 Ry                                                             
                                                                                                    
   TITEL  = PAW_PBE Mo_sv 02Feb2006                                                                 
   LULTRA =        F    use ultrasoft PP ?                                                          
   IUNSCR =        1    unscreen: 0-lin 1-nonlin 2-no                                               
   RPACOR =    2.200    partial core radius                                                         
   POMASS =   95.940; ZVAL   =   14.000    mass and valenz                                          
   RCORE  =    2.500    outmost cutoff radius                                                       
   RWIGS  =    2.750; RWIGS  =    1.455    wigner-seitz radius (au A)                               
   ENMAX  =  242.676; ENMIN  =  182.007 eV                                                          
   ICORE  =        3    local potential                                                             
   LCOR   =        T    correct aug charges                                                         
   LPAW   =        T    paw PP                                                                      
   EAUG   =  446.014                                                                                
   DEXC   =    0.000                                                                                
   RMAX   =    2.563    core radius for proj-oper                                                   
   RAUG   =    1.300    factor for augmentation sphere                                              
   RDEP   =    2.641    radius for radial grids                                                     
   RDEPT  =    2.031    core radius for aug-charge                                                  
                                                                                                    
   Atomic configuration                                                                             
   11 entries                                                                                       
     n  l   j            E        occ.                                                              
     1  0  0.50    -19819.0341   2.0000                                                             
     2  0  0.50     -2799.0127   2.0000                                                             
     2  1  1.50     -2502.0276   6.0000                                                             
     3  0  0.50      -476.4449   2.0000                                                             
     3  1  1.50      -379.1496   6.0000                                                             
     3  2  2.50      -220.9367  10.0000                                                             
     4  0  0.50       -64.3378   2.0000                                                             
     5  0  0.50        -4.0862   1.0000                                                             
     4  1  1.50       -38.4773   6.0000                                                             
     4  2  2.50        -3.7535   5.0000                                                             
     4  3  2.50        -1.3606   0.0000                                                             
   Description                                                                                      
     l       E           TYP  RCUT    TYP  RCUT                                                     
     0    -64.3377829     23  2.100                                                                 
     0     -4.0861640     23  2.400                                                                 
     1    -38.4772993     23  2.100                                                                 
     1     13.6058260     23  2.100                                                                 
     2     -3.7534941     23  2.400                                                                 
     2     -5.1140767     23  2.400                                                                 
     3     -4.0817478     23  2.500                                                                 
  local pseudopotential read in
  partial core-charges read in
  partial kinetic energy density read in
  atomic valenz-charges read in
  non local Contribution for L=           0  read in
    real space projection operators read in
  non local Contribution for L=           0  read in
    real space projection operators read in
  non local Contribution for L=           1  read in
    real space projection operators read in
  non local Contribution for L=           1  read in
    real space projection operators read in
  non local Contribution for L=           2  read in
    real space projection operators read in
  non local Contribution for L=           2  read in
    real space projection operators read in
    PAW grid and wavefunctions read in
 
   number of l-projection  operators is LMAX  =           6
   number of lm-projection operators is LMMAX =          18
 
 POTCAR:    PAW_PBE Ta_pv 07Sep2000               
   SHA256 =  00d0a14a36c127416459414afb8617d9754996fffa60a2465888e660b20a452f Ta_pv/POTCAR          
   COPYR  = (c) Copyright 07Sep2000 Georg Kresse                                                    
   COPYR  = This file is part of the software VASP. Any use, copying, and all other rights are regul
   COPYR  = If you do not have a valid VASP license, you may not use, copy or distribute this file. 
   VRHFIN =Ta:  5p6s5d                                                                              
   LEXCH  = PE                                                                                      
   EATOM  =  1047.1984 eV,   76.9669 Ry                                                             
                                                                                                    
   TITEL  = PAW_PBE Ta_pv 07Sep2000                                                                 
   LULTRA =        F    use ultrasoft PP ?                                                          
   IUNSCR =        1    unscreen: 0-lin 1-nonlin 2-no                                               
   RPACOR =    2.330    partial core radius                                                         
   POMASS =  180.948; ZVAL   =   11.000    mass and valenz                                          
   RCORE  =    2.500    outmost cutoff radius                                                       
   RWIGS  =    2.840; RWIGS  =    1.503    wigner-seitz radius (au A)                               
   ENMAX  =  223.667; ENMIN  =  167.750 eV                                                          
   RCLOC  =    2.205    cutoff for local pot                                                        
   LCOR   =        T    correct aug charges                                                         
   LPAW   =        T    paw PP                                                                      
   EAUG   =  377.421                                                                                
   DEXC   =    0.000                                                                                
   RMAX   =    2.551    core radius for proj-oper                                                   
   RAUG   =    1.300    factor for augmentation sphere                                              
   RDEP   =    2.526    radius for radial grids                                                     
   RDEPT  =    2.132    core radius for aug-charge                                                  
                                                                                                    
   Atomic configuration                                                                             
   15 entries                                                                                       
     n  l   j            E        occ.                                                              
     1  0  0.50    -67341.2801   2.0000                                                             
     2  0  0.50    -11566.9369   2.0000                                                             
     2  1  1.50    -10134.1175   6.0000                                                             
     3  0  0.50     -2648.5614   2.0000                                                             
     3  1  1.50     -2222.6006   6.0000                                                             
     3  2  2.50     -1726.3114  10.0000                                                             
     4  0  0.50      -538.6957   2.0000                                                             
     4  1  1.50      -399.0125   6.0000                                                             
     4  2  2.50      -220.3955  10.0000                                                             
     4  3  3.50       -23.0371  14.0000                                                             
     5  0  0.50       -71.2900   2.0000                                                             
     5  1  1.50       -37.8224   6.0000                                                             
     5  2  2.50        -2.6455   4.0000                                                             
     6  0  0.50        -4.9623   1.0000                                                             
     5  3  2.50        -1.3606   0.0000                                                             
   Description                                                                                      
     l       E           TYP  RCUT    TYP  RCUT                                                     
     1    -37.8224449     23  2.500                                                                 
     1      1.3605826     23  2.500                                                                 
     2     -2.6454718     23  2.500                                                                 
     2     -0.6258570     23  2.500                                                                 
     0     -4.9622674     23  2.500                                                                 
     0      4.7531427     23  2.500                                                                 
  local pseudopotential read in
  partial core-charges read in
  partial kinetic energy density read in
  atomic valenz-charges read in
  non local Contribution for L=           1  read in
    real space projection operators read in
  non local Contribution for L=           1  read in
    real space projection operators read in
  non local Contribution for L=           2  read in
    real space projection operators read in
  non local Contribution for L=           2  read in
    real space projection operators read in
  non local Contribution for L=           0  read in
    real space projection operators read in
  non local Contribution for L=           0  read in
    real space projection operators read in
    PAW grid and wavefunctions read in
 
   number of l-projection  operators is LMAX  =           6
   number of lm-projection operators is LMMAX =          18
 
 POTCAR:    PAW_PBE W_sv 04Sep2015                
   SHA256 =  931c2d770f65867ef30f3db3421922900fc0890ebac5c3e12f63b6a2064023d7 W_sv/POTCAR           
   COPYR  = (c) Copyright 04Sep2015 Georg Kresse                                                    
   COPYR  = This file is part of the software VASP. Any use, copying, and all other rights are regul
   COPYR  = If you do not have a valid VASP license, you may not use, copy or distribute this file. 
   VRHFIN =W : 5p6s5d                                                                               
   LEXCH  = PE                                                                                      
   EATOM  =  1865.5791 eV,  137.1162 Ry                                                             
                                                                                                    
   TITEL  = PAW_PBE W_sv 04Sep2015                                                                  
   LULTRA =        F    use ultrasoft PP ?                                                          
   IUNSCR =        1    unscreen: 0-lin 1-nonlin 2-no                                               
   RPACOR =    2.330    partial core radius                                                         
   POMASS =  183.850; ZVAL   =   14.000    mass and valenz                                          
   RCORE  =    2.500    outmost cutoff radius                                                       
   RWIGS  =    2.750; RWIGS  =    1.455    wigner-seitz radius (au A)                               
   ENMAX  =  223.057; ENMIN  =  167.293 eV                                                          
   ICORE  =        3    local potential                                                             
   LCOR   =        T    correct aug charges                                                         
   LPAW   =        T    paw PP                                                                      
   EAUG   =  373.438                                                                                
   DEXC   =    0.000                                                                                
   RMAX   =    2.565    core radius for proj-oper                                                   
   RAUG   =    1.300    factor for augmentation sphere                                              
   RDEP   =    2.539    radius for radial grids                                                     
   RDEPT  =    2.126    core radius for aug-charge                                                  
                                                                                                    
   Atomic configuration                                                                             
   15 entries                                                                                       
     n  l   j            E        occ.                                                              
     1  0  0.50    -69465.5834   2.0000                                                             
     2  0  0.50    -11986.2640   2.0000                                                             
     2  1  1.50    -10479.8613   6.0000                                                             
     3  0  0.50     -2759.0756   2.0000                                                             
     3  1  1.50     -2313.1855   6.0000                                                             
     3  2  2.50     -1801.1183  10.0000                                                             
     4  0  0.50      -567.6789   2.0000                                                             
     4  1  1.50      -421.4692   6.0000                                                             
     4  2  2.50      -236.3471  10.0000                                                             
     4  3  3.50       -31.2665  14.0000                                                             
     5  0  0.50       -77.1084   2.0000                                                             
     6  0  0.50        -5.1438   1.0000                                                             
     5  1  1.50       -41.3856   6.0000                                                             
     5  2  2.50        -3.3185   5.0000                                                             
     5  3  2.50        -1.3606   0.0000                                                             
   Description                                                                                      
     l       E           TYP  RCUT    TYP  RCUT                                                     
     0    -77.1084470     23  2.100                                                                 
     0     -5.1437956     23  2.300                                                                 
     1    -41.3855615     23  2.500                                                                 
     1     -2.7211652     23  2.500                                                                 
     2     -3.3185025     23  2.500                                                                 
     2     -1.5965151     23  2.500                                                                 
     3     -1.3605826     23  2.500                                                                 
  local pseudopotential read in
  partial core-charges read in
  partial kinetic energy density read in
  kinetic energy density of atom read in
  atomic valenz-charges read in
  non local Contribution for L=           0  read in
    real space projection operators read in
  non local Contribution for L=           0  read in
    real space projection operators read in
  non local Contribution for L=           1  read in
    real space projection operators read in
  non local Contribution for L=           1  read in
    real space projection operators read in
  non local Contribution for L=           2  read in
    real space projection operators read in
  non local Contribution for L=           2  read in
    real space projection operators read in
    PAW grid and wavefunctions read in
 
   number of l-projection  operators is LMAX  =           6
   number of lm-projection operators is LMMAX =          18
 
  PAW_PBE Nb_sv 25May2007               :
 energy of atom  1       EATOM=-1555.1913
 kinetic energy error for atom=    0.2155 (will be added to EATOM!!)
  PAW_PBE Mo_sv 02Feb2006               :
 energy of atom  2       EATOM=-1862.2866
 kinetic energy error for atom=    0.1102 (will be added to EATOM!!)
  PAW_PBE Ta_pv 07Sep2000               :
 energy of atom  3       EATOM=-1047.1984
 kinetic energy error for atom=    0.0394 (will be added to EATOM!!)
  PAW_PBE W_sv 04Sep2015                :
 energy of atom  4       EATOM=-1865.5791
 kinetic energy error for atom=    0.0589 (will be added to EATOM!!)
 
 
 POSCAR: Nb-Mo-Ta-W alloy
  positions in direct lattice
  No initial velocities read in
 exchange correlation table for  LEXCH =        8
   RHO(1)=    0.500       N(1)  =     2000
   RHO(2)=  100.500       N(2)  =     4000
 


--------------------------------------------------------------------------------------------------------


 ion  position               nearest neighbor table
   1  0.000  0.500  0.000-   3 2.85   5 2.85   6 2.85   7 2.85   8 2.85  12 2.85  13 2.85  16 2.85
                            11 3.29  11 3.29
   2  0.500  0.000  0.000-   3 2.85   5 2.85   6 2.85   7 2.85   8 2.85  12 2.85  13 2.85  16 2.85
                            11 3.29  10 3.29  10 3.29  11 3.29
   3  0.250  0.750  0.750-   1 2.85   2 2.85   4 2.85   9 2.85  10 2.85  11 2.85  14 2.85  15 2.85

   4  0.500  0.500  0.500-   3 2.85   5 2.85   6 2.85   7 2.85   8 2.85  12 2.85  13 2.85  16 2.85
                            10 3.29  10 3.29
   5  0.750  0.250  0.250-   1 2.85   2 2.85   4 2.85   9 2.85  10 2.85  11 2.85  14 2.85  15 2.85
                            13 3.29   7 3.29  12 3.29  13 3.29   7 3.29  12 3.29
   6  0.250  0.750  0.250-   1 2.85   2 2.85   4 2.85   9 2.85  10 2.85  11 2.85  14 2.85  15 2.85
                             7 3.29  12 3.29  12 3.29   7 3.29
   7  0.750  0.750  0.250-   1 2.85   2 2.85   4 2.85   9 2.85  10 2.85  11 2.85  14 2.85  15 2.85
                             8 3.29   5 3.29   6 3.29   8 3.29   5 3.29   6 3.29
   8  0.750  0.750  0.750-   1 2.85   2 2.85   4 2.85   9 2.85  10 2.85  11 2.85  14 2.85  15 2.85
                             7 3.29  13 3.29   7 3.29  13 3.29
   9  0.000  0.000  0.500-   3 2.85   5 2.85   6 2.85   7 2.85   8 2.85  12 2.85  13 2.85  16 2.85
                            11 3.29  15 3.29  10 3.29  11 3.29  15 3.29  10 3.29
  10  0.500  0.000  0.500-   3 2.85   5 2.85   6 2.85   7 2.85   8 2.85  12 2.85  13 2.85  16 2.85
                             2 3.29   4 3.29   9 3.29   2 3.29   4 3.29   9 3.29
  11  0.000  0.000  0.000-   3 2.85   5 2.85   6 2.85   7 2.85   8 2.85  12 2.85  13 2.85  16 2.85
                             2 3.29   1 3.29   9 3.29   9 3.29   1 3.29   2 3.29
  12  0.250  0.250  0.250-   1 2.85   2 2.85   4 2.85   9 2.85  10 2.85  11 2.85  14 2.85  15 2.85
                             6 3.29   5 3.29  16 3.29  16 3.29   6 3.29   5 3.29
  13  0.750  0.250  0.750-   1 2.85   2 2.85   4 2.85   9 2.85  10 2.85  11 2.85  14 2.85  15 2.85
                             8 3.29   5 3.29  16 3.29   5 3.29   8 3.29  16 3.29
  14  0.500  0.500  0.000-   3 2.85   5 2.85   6 2.85   7 2.85   8 2.85  12 2.85  13 2.85  16 2.85

  15  0.000  0.500  0.500-   3 2.85   5 2.85   6 2.85   7 2.85   8 2.85  12 2.85  13 2.85  16 2.85
                             9 3.29   9 3.29
  16  0.250  0.250  0.750-   1 2.85   2 2.85   4 2.85   9 2.85  10 2.85  11 2.85  14 2.85  15 2.85
                            12 3.29  13 3.29  12 3.29  13 3.29
 
  LATTYP: Found a simple cubic cell.
 ALAT       =     6.5800000000
  
  Lattice vectors:
  
 A1 = (   6.5800000000,   0.0000000000,   0.0000000000)
 A2 = (   0.0000000000,   6.5800000000,   0.0000000000)
 A3 = (   0.0000000000,   0.0000000000,   6.5800000000)


Analysis of symmetry for initial positions (statically):
=====================================================================
 Subroutine PRICEL returns:
 Original cell was already a primitive cell.
 

 Routine SETGRP: Setting up the symmetry group for a 
 simple cubic supercell.


 Subroutine GETGRP returns: Found  2 space group operations
 (whereof  1 operations were pure point group operations)
 out of a pool of 48 trial point group operations.


The static configuration has the point symmetry C_1 .
 The point group associated with its full space group is C_1h.


Analysis of symmetry for dynamics (positions and initial velocities):
=====================================================================
 Subroutine PRICEL returns:
 Original cell was already a primitive cell.
 

 Routine SETGRP: Setting up the symmetry group for a 
 simple cubic supercell.


 Subroutine GETGRP returns: Found  2 space group operations
 (whereof  1 operations were pure point group operations)
 out of a pool of 48 trial point group operations.


The dynamic configuration has the point symmetry C_1 .
 The point group associated with its full space group is C_1h.


 Subroutine INISYM returns: Found  2 space group operations
 (whereof  1 operations are pure point group operations),
 and found     1 'primitive' translations


----------------------------------------------------------------------------------------

                                     Primitive cell                                     

  volume of cell :     284.8903

  direct lattice vectors                    reciprocal lattice vectors
     6.580000000  0.000000000  0.000000000     0.151975684  0.000000000  0.000000000
     0.000000000  6.580000000  0.000000000     0.000000000  0.151975684  0.000000000
     0.000000000  0.000000000  6.580000000     0.000000000  0.000000000  0.151975684

  length of vectors
     6.580000000  6.580000000  6.580000000     0.151975684  0.151975684  0.151975684

  position of ions in fractional coordinates (direct lattice)
     0.000000000  0.500000000  0.000000000
     0.500000000  0.000000000  0.000000000
     0.250000000  0.750000000  0.750000000
     0.500000000  0.500000000  0.500000000
     0.750000000  0.250000000  0.250000000
     0.250000000  0.750000000  0.250000000
     0.750000000  0.750000000  0.250000000
     0.750000000  0.750000000  0.750000000
     0.000000000  0.000000000  0.500000000
     0.500000000  0.000000000  0.500000000
     0.000000000  0.000000000  0.000000000
     0.250000000  0.250000000  0.250000000
     0.750000000  0.250000000  0.750000000
     0.500000000  0.500000000  0.000000000
     0.000000000  0.500000000  0.500000000
     0.250000000  0.250000000  0.750000000

  ion indices of the primitive-cell ions
   primitive index   ion index
                 1           1
                 2           2
                 3           3
                 4           4
                 5           5
                 6           6
                 7           7
                 8           8
                 9           9
                10          10
                11          11
                12          12
                13          13
                14          14
                15          15
                16          16

----------------------------------------------------------------------------------------

 
 
 KPOINTS: K-Spacing Value to Generate K-Mesh: 0.03

Automatic generation of k-mesh.
 Grid dimensions read from file:
 generate k-points for:    5    5    5

 Generating k-lattice:

  Cartesian coordinates                     Fractional coordinates (reciprocal lattice)
     0.030395137  0.000000000  0.000000000     0.200000000  0.000000000  0.000000000
     0.000000000  0.030395137  0.000000000     0.000000000  0.200000000  0.000000000
     0.000000000  0.000000000  0.030395137     0.000000000  0.000000000  0.200000000

  Length of vectors
     0.030395137  0.030395137  0.030395137

  Shift w.r.t. Gamma in fractional coordinates (k-lattice)
     0.000000000  0.000000000  0.000000000

 
 Subroutine IBZKPT returns following result:
 ===========================================
 
 Found     39 irreducible k-points:
 
 Following reciprocal coordinates:
            Coordinates               Weight
  0.000000  0.000000  0.000000      1.000000
  0.200000  0.000000  0.000000      4.000000
  0.000000  0.200000  0.000000      2.000000
  0.400000  0.000000  0.000000      4.000000
  0.000000  0.400000  0.000000      2.000000
  0.200000  0.200000  0.000000      4.000000
  0.200000  0.000000  0.200000      2.000000
 -0.200000  0.200000  0.000000      4.000000
 -0.200000  0.000000  0.200000      2.000000
  0.400000  0.200000  0.000000      4.000000
  0.000000  0.400000  0.200000      4.000000
  0.200000  0.000000  0.400000      4.000000
 -0.200000  0.400000  0.000000      4.000000
 -0.400000  0.000000  0.200000      4.000000
  0.000000 -0.200000  0.400000      4.000000
  0.400000  0.400000  0.000000      4.000000
  0.400000  0.000000  0.400000      2.000000
 -0.400000  0.400000  0.000000      4.000000
 -0.400000  0.000000  0.400000      2.000000
  0.200000  0.200000  0.200000      2.000000
 -0.200000  0.200000  0.200000      4.000000
  0.200000 -0.200000  0.200000      2.000000
  0.400000  0.200000  0.200000      4.000000
  0.200000  0.400000  0.200000      2.000000
 -0.200000  0.400000  0.200000      4.000000
 -0.400000  0.200000  0.200000      4.000000
 -0.200000  0.200000  0.400000      4.000000
  0.200000 -0.400000  0.200000      2.000000
  0.400000 -0.200000  0.200000      4.000000
  0.400000  0.400000  0.200000      4.000000
  0.400000  0.200000  0.400000      2.000000
 -0.400000  0.400000  0.200000      4.000000
 -0.400000  0.200000  0.400000      4.000000
 -0.200000  0.400000  0.400000      4.000000
  0.400000 -0.400000  0.200000      4.000000
  0.400000 -0.200000  0.400000      2.000000
  0.400000  0.400000  0.400000      2.000000
 -0.400000  0.400000  0.400000      4.000000
  0.400000 -0.400000  0.400000      2.000000
 
 Following cartesian coordinates:
            Coordinates               Weight
  0.000000  0.000000  0.000000      1.000000
  0.030395  0.000000  0.000000      4.000000
  0.000000  0.030395  0.000000      2.000000
  0.060790  0.000000  0.000000      4.000000
  0.000000  0.060790  0.000000      2.000000
  0.030395  0.030395  0.000000      4.000000
  0.030395  0.000000  0.030395      2.000000
 -0.030395  0.030395  0.000000      4.000000
 -0.030395  0.000000  0.030395      2.000000
  0.060790  0.030395  0.000000      4.000000
  0.000000  0.060790  0.030395      4.000000
  0.030395  0.000000  0.060790      4.000000
 -0.030395  0.060790  0.000000      4.000000
 -0.060790  0.000000  0.030395      4.000000
  0.000000 -0.030395  0.060790      4.000000
  0.060790  0.060790  0.000000      4.000000
  0.060790  0.000000  0.060790      2.000000
 -0.060790  0.060790  0.000000      4.000000
 -0.060790  0.000000  0.060790      2.000000
  0.030395  0.030395  0.030395      2.000000
 -0.030395  0.030395  0.030395      4.000000
  0.030395 -0.030395  0.030395      2.000000
  0.060790  0.030395  0.030395      4.000000
  0.030395  0.060790  0.030395      2.000000
 -0.030395  0.060790  0.030395      4.000000
 -0.060790  0.030395  0.030395      4.000000
 -0.030395  0.030395  0.060790      4.000000
  0.030395 -0.060790  0.030395      2.000000
  0.060790 -0.030395  0.030395      4.000000
  0.060790  0.060790  0.030395      4.000000
  0.060790  0.030395  0.060790      2.000000
 -0.060790  0.060790  0.030395      4.000000
 -0.060790  0.030395  0.060790      4.000000
 -0.030395  0.060790  0.060790      4.000000
  0.060790 -0.060790  0.030395      4.000000
  0.060790 -0.030395  0.060790      2.000000
  0.060790  0.060790  0.060790      2.000000
 -0.060790  0.060790  0.060790      4.000000
  0.060790 -0.060790  0.060790      2.000000
 


--------------------------------------------------------------------------------------------------------




 Dimension of arrays:
   k-points           NKPTS =     39   k-points in BZ     NKDIM =     39   number of bands    NBANDS=    124
   number of dos      NEDOS =    301   number of ions     NIONS =     16
   non local maximal  LDIM  =      6   non local SUM 2l+1 LMDIM =     18
   total plane-waves  NPLWV =  46656
   max r-space proj   IRMAX =      1   max aug-charges    IRDMAX=   9546
   dimension x,y,z NGX =    36 NGY =   36 NGZ =   36
   dimension x,y,z NGXF=    72 NGYF=   72 NGZF=   72
   support grid    NGXF=    72 NGYF=   72 NGZF=   72
   ions per type =               4   4   5   3
   NGX,Y,Z   is equivalent  to a cutoff of   9.10,  9.10,  9.10 a.u.
   NGXF,Y,Z  is equivalent  to a cutoff of  18.19, 18.19, 18.19 a.u.

 SYSTEM =  unknown system                          
 POSCAR =  Nb-Mo-Ta-W alloy                        

 Startparameter for this run:
   NWRITE =      2    write-flag & timer
   PREC   = accura    normal or accurate (medium, high low for compatibility)
   ISTART =      0    job   : 0-new  1-cont  2-samecut
   ICHARG =      2    charge: 1-file 2-atom 10-const
   ISPIN  =      1    spin polarized calculation?
   LNONCOLLINEAR =      F non collinear calculations
   LSORBIT =      F    spin-orbit coupling
   INIWAV =      1    electr: 0-lowe 1-rand  2-diag
   LASPH  =      F    aspherical Exc in radial PAW
 Electronic Relaxation 1
   ENCUT  =  250.0 eV  18.37 Ry    4.29 a.u.   8.48  8.48  8.48*2*pi/ulx,y,z
   ENINI  =  250.0     initial cutoff
   ENAUG  =  455.7 eV  augmentation charge cutoff
   NELM   =     80;   NELMIN=  2; NELMDL= -5     # of ELM steps 
   EDIFF  = 0.1E-07   stopping-criterion for ELM
   LREAL  =      F    real-space projection
   NLSPLINE    = F    spline interpolate recip. space projectors
   LCOMPAT=      F    compatible to vasp.4.4
   GGA_COMPAT  = T    GGA compatible to vasp.4.4-vasp.4.6
   LMAXPAW     = -100 max onsite density
   LMAXMIX     =    2 max onsite mixed and CHGCAR
   VOSKOWN=      0    Vosko Wilk Nusair interpolation
   ROPT   =    0.00000   0.00000   0.00000   0.00000
 Ionic relaxation
   EDIFFG = -.1E-01   stopping-criterion for IOM
   NSW    =      0    number of steps for IOM
   NBLOCK =      1;   KBLOCK =      1    inner block; outer block 
   IBRION =     -1    ionic relax: 0-MD 1-quasi-New 2-CG
   NFREE  =      0    steps in history (QN), initial steepest desc. (CG)
   ISIF   =      2    stress and relaxation
   IWAVPR =     10    prediction:  0-non 1-charg 2-wave 3-comb
   ISYM   =      2    0-nonsym 1-usesym 2-fastsym
   LCORR  =      T    Harris-Foulkes like correction to forces

   POTIM  = 0.5000    time-step for ionic-motion
   TEIN   =    0.0    initial temperature
   TEBEG  =    0.0;   TEEND  =   0.0 temperature during run
   SMASS  =  -3.00    Nose mass-parameter (am)
   estimated Nose-frequenzy (Omega)   =  0.10E-29 period in steps = 0.13E+47 mass=  -0.989E-27a.u.
   SCALEE = 1.0000    scale energy and forces
   NPACO  =    256;   APACO  = 10.0  distance and # of slots for P.C.
   PSTRESS=    0.0 pullay stress

  Mass of Ions in am
   POMASS =  92.91 95.94180.95183.85
  Ionic Valenz
   ZVAL   =  13.00 14.00 11.00 14.00
  Atomic Wigner-Seitz radii
   RWIGS  =  -1.00 -1.00 -1.00 -1.00
  virtual crystal weights 
   VCA    =   1.00  1.00  1.00  1.00
   NELECT =     205.0000    total number of electrons
   NUPDOWN=      -1.0000    fix difference up-down

 DOS related values:
   EMIN   =  10.00;   EMAX   =-10.00  energy-range for DOS
   EFERMI =   0.00
   ISMEAR =     0;   SIGMA  =   0.02  broadening in eV -4-tet -1-fermi 0-gaus

 Electronic relaxation 2 (details)
   IALGO  =     38    algorithm
   LDIAG  =      T    sub-space diagonalisation (order eigenvalues)
   LSUBROT=      F    optimize rotation matrix (better conditioning)
   TURBO    =      0    0=normal 1=particle mesh
   IRESTART =      0    0=no restart 2=restart with 2 vectors
   NREBOOT  =      0    no. of reboots
   NMIN     =      0    reboot dimension
   EREF     =   0.00    reference energy to select bands
   IMIX   =      4    mixing-type and parameters
     AMIX     =   0.40;   BMIX     =  1.00
     AMIX_MAG =   1.60;   BMIX_MAG =  1.00
     AMIN     =   0.10
     WC   =   100.;   INIMIX=   1;  MIXPRE=   1;  MAXMIX= -45

 Intra band minimization:
   WEIMIN = 0.0000     energy-eigenvalue tresh-hold
   EBREAK =  0.20E-10  absolut break condition
   DEPER  =   0.30     relativ break condition  

   TIME   =   0.40     timestep for ELM

  volume/ion in A,a.u.               =      17.81       120.16
  Fermi-wavevector in a.u.,A,eV,Ry     =   1.467012  2.772250 29.281413  2.152123
  Thomas-Fermi vector in A             =   2.582680
 
 Write flags
   LWAVE        =      F    write WAVECAR
   LDOWNSAMPLE  =      F    k-point downsampling of WAVECAR
   LCHARG       =      F    write CHGCAR
   LVTOT        =      F    write LOCPOT, total local potential
   LVHAR        =      F    write LOCPOT, Hartree potential only
   LELF         =      F    write electronic localiz. function (ELF)
   LORBIT       =      0    0 simple, 1 ext, 2 COOP (PROOUT), +10 PAW based schemes


 Dipole corrections
   LMONO  =      F    monopole corrections only (constant potential shift)
   LDIPOL =      F    correct potential (dipole corrections)
   IDIPOL =      0    1-x, 2-y, 3-z, 4-all directions 
   EPSILON=  1.0000000 bulk dielectric constant

 Core level calculations are selected ICORELEVEL =  1
 Exchange correlation treatment:
   GGA     =    PE    GGA type
   LEXCH   =     8    internal setting for exchange type
   LIBXC   =     F    Libxc                    
   VOSKOWN =     0    Vosko Wilk Nusair interpolation
   LHFCALC =     F    Hartree Fock is set to
   LHFONE  =     F    Hartree Fock one center treatment
   AEXX    =    0.0000 exact exchange contribution

 Linear response parameters
   LEPSILON=     F    determine dielectric tensor
   LRPA    =     F    only Hartree local field effects (RPA)
   LNABLA  =     F    use nabla operator in PAW spheres
   LVEL    =     F    velocity operator in full k-point grid
   CSHIFT  =0.1000    complex shift for real part using Kramers Kronig
   OMEGAMAX=  -1.0    maximum frequency
   DEG_THRESHOLD= 0.2000000E-02 threshold for treating states as degnerate
   RTIME   =   -0.100 relaxation time in fs
  (WPLASMAI=    0.000 imaginary part of plasma frequency in eV, 0.658/RTIME)
   DFIELD  = 0.0000000 0.0000000 0.0000000 field for delta impulse in time
 
  Optional k-point grid parameters
   LKPOINTS_OPT  =     F    use optional k-point grid
   KPOINTS_OPT_MODE=     1    mode for optional k-point grid
 
 Orbital magnetization related:
   ORBITALMAG=     F  switch on orbital magnetization
   LCHIMAG   =     F  perturbation theory with respect to B field
   DQ        =  0.001000  dq finite difference perturbation B field
   LLRAUG    =     F  two centre corrections for induced B field



--------------------------------------------------------------------------------------------------------


 Static calculation
 charge density and potential will be updated during run
 non-spin polarized calculation
 Variant of blocked Davidson
 Davidson routine will perform the subspace rotation
 perform sub-space diagonalisation
    after iterative eigenvector-optimisation
 modified Broyden-mixing scheme, WC =      100.0
 initial mixing is a Kerker type mixing with AMIX =  0.4000 and BMIX =      1.0000
 Hartree-type preconditioning will be used
 using additional bands           21
 reciprocal scheme for non local part
 use partial core corrections
 calculate Harris-corrections to forces 
   (improved forces if not selfconsistent)
 use gradient corrections 
 use of overlap-Matrix (Vanderbilt PP)
 Gauss-broadening in eV      SIGMA  =   0.02


--------------------------------------------------------------------------------------------------------


  energy-cutoff  :      250.00
  volume of cell :      284.89
      direct lattice vectors                 reciprocal lattice vectors
     6.580000000  0.000000000  0.000000000     0.151975684  0.000000000  0.000000000
     0.000000000  6.580000000  0.000000000     0.000000000  0.151975684  0.000000000
     0.000000000  0.000000000  6.580000000     0.000000000  0.000000000  0.151975684

  length of vectors
     6.580000000  6.580000000  6.580000000     0.151975684  0.151975684  0.151975684


 
 k-points in units of 2pi/SCALE and weight: K-Spacing Value to Generate K-Mesh: 0.03
   0.00000000  0.00000000  0.00000000       0.008
   0.03039514  0.00000000  0.00000000       0.032
   0.00000000  0.03039514  0.00000000       0.016
   0.06079027  0.00000000  0.00000000       0.032
   0.00000000  0.06079027  0.00000000       0.016
   0.03039514  0.03039514  0.00000000       0.032
   0.03039514  0.00000000  0.03039514       0.016
  -0.03039514  0.03039514  0.00000000       0.032
  -0.03039514  0.00000000  0.03039514       0.016
   0.06079027  0.03039514  0.00000000       0.032
   0.00000000  0.06079027  0.03039514       0.032
   0.03039514  0.00000000  0.06079027       0.032
  -0.03039514  0.06079027  0.00000000       0.032
  -0.06079027  0.00000000  0.03039514       0.032
   0.00000000 -0.03039514  0.06079027       0.032
   0.06079027  0.06079027  0.00000000       0.032
   0.06079027  0.00000000  0.06079027       0.016
  -0.06079027  0.06079027  0.00000000       0.032
  -0.06079027  0.00000000  0.06079027       0.016
   0.03039514  0.03039514  0.03039514       0.016
  -0.03039514  0.03039514  0.03039514       0.032
   0.03039514 -0.03039514  0.03039514       0.016
   0.06079027  0.03039514  0.03039514       0.032
   0.03039514  0.06079027  0.03039514       0.016
  -0.03039514  0.06079027  0.03039514       0.032
  -0.06079027  0.03039514  0.03039514       0.032
  -0.03039514  0.03039514  0.06079027       0.032
   0.03039514 -0.06079027  0.03039514       0.016
   0.06079027 -0.03039514  0.03039514       0.032
   0.06079027  0.06079027  0.03039514       0.032
   0.06079027  0.03039514  0.06079027       0.016
  -0.06079027  0.06079027  0.03039514       0.032
  -0.06079027  0.03039514  0.06079027       0.032
  -0.03039514  0.06079027  0.06079027       0.032
   0.06079027 -0.06079027  0.03039514       0.032
   0.06079027 -0.03039514  0.06079027       0.016
   0.06079027  0.06079027  0.06079027       0.016
  -0.06079027  0.06079027  0.06079027       0.032
   0.06079027 -0.06079027  0.06079027       0.016
 
 k-points in reciprocal lattice and weights: K-Spacing Value to Generate K-Mesh: 0.03
   0.00000000  0.00000000  0.00000000       0.008
   0.20000000  0.00000000  0.00000000       0.032
   0.00000000  0.20000000  0.00000000       0.016
   0.40000000  0.00000000  0.00000000       0.032
   0.00000000  0.40000000  0.00000000       0.016
   0.20000000  0.20000000  0.00000000       0.032
   0.20000000  0.00000000  0.20000000       0.016
  -0.20000000  0.20000000  0.00000000       0.032
  -0.20000000  0.00000000  0.20000000       0.016
   0.40000000  0.20000000  0.00000000       0.032
   0.00000000  0.40000000  0.20000000       0.032
   0.20000000  0.00000000  0.40000000       0.032
  -0.20000000  0.40000000  0.00000000       0.032
  -0.40000000  0.00000000  0.20000000       0.032
   0.00000000 -0.20000000  0.40000000       0.032
   0.40000000  0.40000000  0.00000000       0.032
   0.40000000  0.00000000  0.40000000       0.016
  -0.40000000  0.40000000  0.00000000       0.032
  -0.40000000  0.00000000  0.40000000       0.016
   0.20000000  0.20000000  0.20000000       0.016
  -0.20000000  0.20000000  0.20000000       0.032
   0.20000000 -0.20000000  0.20000000       0.016
   0.40000000  0.20000000  0.20000000       0.032
   0.20000000  0.40000000  0.20000000       0.016
  -0.20000000  0.40000000  0.20000000       0.032
  -0.40000000  0.20000000  0.20000000       0.032
  -0.20000000  0.20000000  0.40000000       0.032
   0.20000000 -0.40000000  0.20000000       0.016
   0.40000000 -0.20000000  0.20000000       0.032
   0.40000000  0.40000000  0.20000000       0.032
   0.40000000  0.20000000  0.40000000       0.016
  -0.40000000  0.40000000  0.20000000       0.032
  -0.40000000  0.20000000  0.40000000       0.032
  -0.20000000  0.40000000  0.40000000       0.032
   0.40000000 -0.40000000  0.20000000       0.032
   0.40000000 -0.20000000  0.40000000       0.016
   0.40000000  0.40000000  0.40000000       0.016
  -0.40000000  0.40000000  0.40000000       0.032
   0.40000000 -0.40000000  0.40000000       0.016
 
 position of ions in fractional coordinates (direct lattice) 
   0.00000000  0.50000000  0.00000000
   0.50000000  0.00000000  0.00000000
   0.25000000  0.75000000  0.75000000
   0.50000000  0.50000000  0.50000000
   0.75000000  0.25000000  0.25000000
   0.25000000  0.75000000  0.25000000
   0.75000000  0.75000000  0.25000000
   0.75000000  0.75000000  0.75000000
   0.00000000  0.00000000  0.50000000
   0.50000000  0.00000000  0.50000000
   0.00000000  0.00000000  0.00000000
   0.25000000  0.25000000  0.25000000
   0.75000000  0.25000000  0.75000000
   0.50000000  0.50000000  0.00000000
   0.00000000  0.50000000  0.50000000
   0.25000000  0.25000000  0.75000000
 
 position of ions in cartesian coordinates  (Angst):
   0.00000000  3.29000000  0.00000000
   3.29000000  0.00000000  0.00000000
   1.64500000  4.93500000  4.93500000
   3.29000000  3.29000000  3.29000000
   4.93500000  1.64500000  1.64500000
   1.64500000  4.93500000  1.64500000
   4.93500000  4.93500000  1.64500000
   4.93500000  4.93500000  4.93500000
   0.00000000  0.00000000  3.29000000
   3.29000000  0.00000000  3.29000000
   0.00000000  0.00000000  0.00000000
   1.64500000  1.64500000  1.64500000
   4.93500000  1.64500000  4.93500000
   3.29000000  3.29000000  0.00000000
   0.00000000  3.29000000  3.29000000
   1.64500000  1.64500000  4.93500000
 


--------------------------------------------------------------------------------------------------------


 k-point   1 :   0.0000 0.0000 0.0000  plane waves:    2517
 k-point   2 :   0.2000 0.0000 0.0000  plane waves:    2545
 k-point   3 :   0.0000 0.2000 0.0000  plane waves:    2545
 k-point   4 :   0.4000 0.0000 0.0000  plane waves:    2569
 k-point   5 :   0.0000 0.4000 0.0000  plane waves:    2569
 k-point   6 :   0.2000 0.2000 0.0000  plane waves:    2562
 k-point   7 :   0.2000 0.0000 0.2000  plane waves:    2562
 k-point   8 :  -0.2000 0.2000 0.0000  plane waves:    2562
 k-point   9 :  -0.2000 0.0000 0.2000  plane waves:    2562
 k-point  10 :   0.4000 0.2000 0.0000  plane waves:    2566
 k-point  11 :   0.0000 0.4000 0.2000  plane waves:    2566
 k-point  12 :   0.2000 0.0000 0.4000  plane waves:    2566
 k-point  13 :  -0.2000 0.4000 0.0000  plane waves:    2566
 k-point  14 :  -0.4000 0.0000 0.2000  plane waves:    2566
 k-point  15 :   0.0000-0.2000 0.4000  plane waves:    2566
 k-point  16 :   0.4000 0.4000 0.0000  plane waves:    2570
 k-point  17 :   0.4000 0.0000 0.4000  plane waves:    2570
 k-point  18 :  -0.4000 0.4000 0.0000  plane waves:    2570
 k-point  19 :  -0.4000 0.0000 0.4000  plane waves:    2570
 k-point  20 :   0.2000 0.2000 0.2000  plane waves:    2572
 k-point  21 :  -0.2000 0.2000 0.2000  plane waves:    2572
 k-point  22 :   0.2000-0.2000 0.2000  plane waves:    2572
 k-point  23 :   0.4000 0.2000 0.2000  plane waves:    2546
 k-point  24 :   0.2000 0.4000 0.2000  plane waves:    2546
 k-point  25 :  -0.2000 0.4000 0.2000  plane waves:    2546
 k-point  26 :  -0.4000 0.2000 0.2000  plane waves:    2546
 k-point  27 :  -0.2000 0.2000 0.4000  plane waves:    2546
 k-point  28 :   0.2000-0.4000 0.2000  plane waves:    2546
 k-point  29 :   0.4000-0.2000 0.2000  plane waves:    2546
 k-point  30 :   0.4000 0.4000 0.2000  plane waves:    2549
 k-point  31 :   0.4000 0.2000 0.4000  plane waves:    2549
 k-point  32 :  -0.4000 0.4000 0.2000  plane waves:    2549
 k-point  33 :  -0.4000 0.2000 0.4000  plane waves:    2549
 k-point  34 :  -0.2000 0.4000 0.4000  plane waves:    2549
 k-point  35 :   0.4000-0.4000 0.2000  plane waves:    2549
 k-point  36 :   0.4000-0.2000 0.4000  plane waves:    2549
 k-point  37 :   0.4000 0.4000 0.4000  plane waves:    2533
 k-point  38 :  -0.4000 0.4000 0.4000  plane waves:    2533
 k-point  39 :   0.4000-0.4000 0.4000  plane waves:    2533

 maximum and minimum number of plane-waves per node :       234      194

 maximum number of plane-waves:      2572
 maximum index in each direction: 
   IXMAX=    8   IYMAX=    8   IZMAX=    8
   IXMIN=   -8   IYMIN=   -8   IZMIN=   -8


 parallel 3D FFT for wavefunctions:
    minimum data exchange during FFTs selected (reduces bandwidth)
 parallel 3D FFT for charge:
    minimum data exchange during FFTs selected (reduces bandwidth)


 total amount of memory used by VASP MPI-rank0    41692. kBytes
=======================================================================

   base      :      30000. kBytes
   nonl-proj :       5180. kBytes
   fftplans  :        456. kBytes
   grid      :        919. kBytes
   one-center:         31. kBytes
   wavefun   :       5106. kBytes
 
     INWAV:  cpu time      0.0000: real time      0.0000
 Broyden mixing: mesh for mixing (old mesh)
   NGX = 17   NGY = 17   NGZ = 17
  (NGX  = 72   NGY  = 72   NGZ  = 72)
  gives a total of   4913 points

 initial charge density was supplied:
 charge density of overlapping atoms calculated
 number of electron     205.0000000 magnetization 
 keeping initial charge density in first step


--------------------------------------------------------------------------------------------------------


 Maximum index for augmentation-charges          517 (set IRDMAX)


--------------------------------------------------------------------------------------------------------


 First call to EWALD:  gamma=   0.269
 Maximum number of real-space cells 3x 3x 3
 Maximum number of reciprocal cells 3x 3x 3

    FEWALD:  cpu time      0.0012: real time      0.0012


--------------------------------------- Iteration      1(   1)  ---------------------------------------


    POTLOK:  cpu time      0.2108: real time      0.2175
    SETDIJ:  cpu time      0.0039: real time      0.0041
     EDDAV:  cpu time      1.9972: real time      2.0065
       DOS:  cpu time      0.0030: real time      0.0030
    --------------------------------------------
      LOOP:  cpu time      2.2149: real time      2.2312

 eigenvalue-minimisations  : 10064
 total energy-change (2. order) : 0.1865351E+04  (-0.8045299E+04)
 number of electron     205.0000000 magnetization 
 augmentation part      205.0000000 magnetization 

 Free energy of the ion-electron system (eV)
  ---------------------------------------------------
  alpha Z        PSCENC =      1828.07255639
  Ewald energy   TEWEN  =    -20990.38062955
  -Hartree energ DENC   =     -3903.22695723
  -exchange      EXHF   =         0.00000000
  -V(xc)+E(xc)   XCENC  =       782.59182370
  PAW double counting   =     19421.59932430   -19121.32500909
  entropy T*S    EENTRO =        -0.00130752
  eigenvalues    EBANDS =      -652.94268568
  atomic energy  EATOM  =     24500.96410755
  Solvation  Ediel_sol  =         0.00000000
  ---------------------------------------------------
  free energy    TOTEN  =      1865.35122286 eV

  energy without entropy =     1865.35253038  energy(sigma->0) =     1865.35187662


--------------------------------------------------------------------------------------------------------




--------------------------------------- Iteration      1(   2)  ---------------------------------------


     EDDAV:  cpu time      1.8350: real time      1.8434
       DOS:  cpu time      0.0029: real time      0.0030
    --------------------------------------------
      LOOP:  cpu time      1.8379: real time      1.8463

 eigenvalue-minimisations  : 10044
 total energy-change (2. order) :-0.1891158E+04  (-0.1829882E+04)
 number of electron     205.0000000 magnetization 
 augmentation part      205.0000000 magnetization 

 Free energy of the ion-electron system (eV)
  ---------------------------------------------------
  alpha Z        PSCENC =      1828.07255639
  Ewald energy   TEWEN  =    -20990.38062955
  -Hartree energ DENC   =     -3903.22695723
  -exchange      EXHF   =         0.00000000
  -V(xc)+E(xc)   XCENC  =       782.59182370
  PAW double counting   =     19421.59932430   -19121.32500909
  entropy T*S    EENTRO =        -0.00100644
  eigenvalues    EBANDS =     -2544.10051549
  atomic energy  EATOM  =     24500.96410755
  Solvation  Ediel_sol  =         0.00000000
  ---------------------------------------------------
  free energy    TOTEN  =       -25.80630586 eV

  energy without entropy =      -25.80529942  energy(sigma->0) =      -25.80580264


--------------------------------------------------------------------------------------------------------




--------------------------------------- Iteration      1(   3)  ---------------------------------------


     EDDAV:  cpu time      2.5183: real time      2.5287
       DOS:  cpu time      0.0032: real time      0.0032
    --------------------------------------------
      LOOP:  cpu time      2.5215: real time      2.5319

 eigenvalue-minimisations  : 15208
 total energy-change (2. order) :-0.1566507E+03  (-0.1481526E+03)
 number of electron     205.0000000 magnetization 
 augmentation part      205.0000000 magnetization 

 Free energy of the ion-electron system (eV)
  ---------------------------------------------------
  alpha Z        PSCENC =      1828.07255639
  Ewald energy   TEWEN  =    -20990.38062955
  -Hartree energ DENC   =     -3903.22695723
  -exchange      EXHF   =         0.00000000
  -V(xc)+E(xc)   XCENC  =       782.59182370
  PAW double counting   =     19421.59932430   -19121.32500909
  entropy T*S    EENTRO =        -0.00282907
  eigenvalues    EBANDS =     -2700.74936007
  atomic energy  EATOM  =     24500.96410755
  Solvation  Ediel_sol  =         0.00000000
  ---------------------------------------------------
  free energy    TOTEN  =      -182.45697309 eV

  energy without entropy =     -182.45414401  energy(sigma->0) =     -182.45555855


--------------------------------------------------------------------------------------------------------




--------------------------------------- Iteration      1(   4)  ---------------------------------------


     EDDAV:  cpu time      2.4052: real time      2.4159
       DOS:  cpu time      0.0030: real time      0.0030
    --------------------------------------------
      LOOP:  cpu time      2.4082: real time      2.4189

 eigenvalue-minimisations  : 14440
 total energy-change (2. order) :-0.9691648E+01  (-0.9416642E+01)
 number of electron     205.0000000 magnetization 
 augmentation part      205.0000000 magnetization 

 Free energy of the ion-electron system (eV)
  ---------------------------------------------------
  alpha Z        PSCENC =      1828.07255639
  Ewald energy   TEWEN  =    -20990.38062955
  -Hartree energ DENC   =     -3903.22695723
  -exchange      EXHF   =         0.00000000
  -V(xc)+E(xc)   XCENC  =       782.59182370
  PAW double counting   =     19421.59932430   -19121.32500909
  entropy T*S    EENTRO =        -0.00411954
  eigenvalues    EBANDS =     -2710.43971734
  atomic energy  EATOM  =     24500.96410755
  Solvation  Ediel_sol  =         0.00000000
  ---------------------------------------------------
  free energy    TOTEN  =      -192.14862081 eV

  energy without entropy =     -192.14450128  energy(sigma->0) =     -192.14656105


--------------------------------------------------------------------------------------------------------




--------------------------------------- Iteration      1(   5)  ---------------------------------------


     EDDAV:  cpu time      2.4841: real time      2.4945
       DOS:  cpu time      0.0030: real time      0.0030
    CHARGE:  cpu time      0.0556: real time      0.0557
    MIXING:  cpu time      0.0002: real time      0.0002
    --------------------------------------------
      LOOP:  cpu time      2.5428: real time      2.5534

 eigenvalue-minimisations  : 15080
 total energy-change (2. order) :-0.5387946E+00  (-0.5346075E+00)
 number of electron     204.9999812 magnetization 
 augmentation part       42.4454743 magnetization 

 Broyden mixing:
  rms(total) = 0.52636E+01    rms(broyden)= 0.52626E+01
  rms(prec ) = 0.57630E+01
  weight for this iteration     100.00

 Free energy of the ion-electron system (eV)
  ---------------------------------------------------
  alpha Z        PSCENC =      1828.07255639
  Ewald energy   TEWEN  =    -20990.38062955
  -Hartree energ DENC   =     -3903.22695723
  -exchange      EXHF   =         0.00000000
  -V(xc)+E(xc)   XCENC  =       782.59182370
  PAW double counting   =     19421.59932430   -19121.32500909
  entropy T*S    EENTRO =        -0.00429121
  eigenvalues    EBANDS =     -2710.97834026
  atomic energy  EATOM  =     24500.96410755
  Solvation  Ediel_sol  =         0.00000000
  ---------------------------------------------------
  free energy    TOTEN  =      -192.68741541 eV

  energy without entropy =     -192.68312419  energy(sigma->0) =     -192.68526980


--------------------------------------------------------------------------------------------------------




--------------------------------------- Iteration      1(   6)  ---------------------------------------


    POTLOK:  cpu time      0.0045: real time      0.0048
    SETDIJ:  cpu time      0.0018: real time      0.0018
     EDDAV:  cpu time      2.0183: real time      2.0268
       DOS:  cpu time      0.0028: real time      0.0028
    CHARGE:  cpu time      0.0543: real time      0.0545
    MIXING:  cpu time      0.0002: real time      0.0002
    --------------------------------------------
      LOOP:  cpu time      2.0819: real time      2.0909

 eigenvalue-minimisations  : 11480
 total energy-change (2. order) : 0.7290690E+01  (-0.1862688E+01)
 number of electron     204.9999802 magnetization 
 augmentation part       44.0508329 magnetization 

 Broyden mixing:
  rms(total) = 0.20001E+01    rms(broyden)= 0.19998E+01
  rms(prec ) = 0.23927E+01
  weight for this iteration     100.00

 eigenvalues of (default mixing * dielectric matrix)
  average eigenvalue GAMMA=   1.4688
  1.4688

 Free energy of the ion-electron system (eV)
  ---------------------------------------------------
  alpha Z        PSCENC =      1828.07255639
  Ewald energy   TEWEN  =    -20990.38062955
  -Hartree energ DENC   =     -3688.23756234
  -exchange      EXHF   =         0.00000000
  -V(xc)+E(xc)   XCENC  =       771.97843660
  PAW double counting   =     23095.46368751   -22821.44961274
  entropy T*S    EENTRO =        -0.00258788
  eigenvalues    EBANDS =     -2881.80512058
  atomic energy  EATOM  =     24500.96410755
  Solvation  Ediel_sol  =         0.00000000
  ---------------------------------------------------
  free energy    TOTEN  =      -185.39672504 eV

  energy without entropy =     -185.39413716  energy(sigma->0) =     -185.39543110


--------------------------------------------------------------------------------------------------------




--------------------------------------- Iteration      1(   7)  ---------------------------------------


    POTLOK:  cpu time      0.0044: real time      0.0046
    SETDIJ:  cpu time      0.0017: real time      0.0017
     EDDAV:  cpu time      2.3492: real time      2.3591
       DOS:  cpu time      0.0027: real time      0.0027
    CHARGE:  cpu time      0.0549: real time      0.0551
    MIXING:  cpu time      0.0003: real time      0.0003
    --------------------------------------------
      LOOP:  cpu time      2.4132: real time      2.4236

 eigenvalue-minimisations  : 14048
 total energy-change (2. order) : 0.3175043E-01  (-0.1431733E+01)
 number of electron     204.9999809 magnetization 
 augmentation part       43.8874729 magnetization 

 Broyden mixing:
  rms(total) = 0.10596E+01    rms(broyden)= 0.10593E+01
  rms(prec ) = 0.22999E+01
  weight for this iteration     100.00

 eigenvalues of (default mixing * dielectric matrix)
  average eigenvalue GAMMA=   1.1286
  1.6686  0.5886

 Free energy of the ion-electron system (eV)
  ---------------------------------------------------
  alpha Z        PSCENC =      1828.07255639
  Ewald energy   TEWEN  =    -20990.38062955
  -Hartree energ DENC   =     -3620.59476774
  -exchange      EXHF   =         0.00000000
  -V(xc)+E(xc)   XCENC  =       768.06172880
  PAW double counting   =     25602.23108000   -25338.67991037
  entropy T*S    EENTRO =        -0.00140464
  eigenvalues    EBANDS =     -2935.03773505
  atomic energy  EATOM  =     24500.96410755
  Solvation  Ediel_sol  =         0.00000000
  ---------------------------------------------------
  free energy    TOTEN  =      -185.36497461 eV

  energy without entropy =     -185.36356998  energy(sigma->0) =     -185.36427229


--------------------------------------------------------------------------------------------------------




--------------------------------------- Iteration      1(   8)  ---------------------------------------


    POTLOK:  cpu time      0.0095: real time      0.0180
    SETDIJ:  cpu time      0.0022: real time      0.0022
     EDDAV:  cpu time      2.0884: real time      2.0974
       DOS:  cpu time      0.0027: real time      0.0028
    CHARGE:  cpu time      0.0543: real time      0.0545
    MIXING:  cpu time      0.0002: real time      0.0002
    --------------------------------------------
      LOOP:  cpu time      2.1574: real time      2.1751

 eigenvalue-minimisations  : 12008
 total energy-change (2. order) : 0.1777535E+01  (-0.7256454E+00)
 number of electron     204.9999804 magnetization 
 augmentation part       44.3828553 magnetization 

 Broyden mixing:
  rms(total) = 0.41308E+00    rms(broyden)= 0.41238E+00
  rms(prec ) = 0.68451E+00
  weight for this iteration     100.00

 eigenvalues of (default mixing * dielectric matrix)
  average eigenvalue GAMMA=   1.0900
  1.7815  1.0832  0.4051

 Free energy of the ion-electron system (eV)
  ---------------------------------------------------
  alpha Z        PSCENC =      1828.07255639
  Ewald energy   TEWEN  =    -20990.38062955
  -Hartree energ DENC   =     -3581.23243455
  -exchange      EXHF   =         0.00000000
  -V(xc)+E(xc)   XCENC  =       766.37740404
  PAW double counting   =     26411.47146741   -26152.32482719
  entropy T*S    EENTRO =        -0.00204300
  eigenvalues    EBANDS =     -2966.53304031
  atomic energy  EATOM  =     24500.96410755
  Solvation  Ediel_sol  =         0.00000000
  ---------------------------------------------------
  free energy    TOTEN  =      -183.58743921 eV

  energy without entropy =     -183.58539622  energy(sigma->0) =     -183.58641771


--------------------------------------------------------------------------------------------------------




--------------------------------------- Iteration      1(   9)  ---------------------------------------


    POTLOK:  cpu time      0.0043: real time      0.0046
    SETDIJ:  cpu time      0.0017: real time      0.0017
     EDDAV:  cpu time      2.2279: real time      2.2372
       DOS:  cpu time      0.0029: real time      0.0029
    CHARGE:  cpu time      0.0544: real time      0.0545
    MIXING:  cpu time      0.0003: real time      0.0003
    --------------------------------------------
      LOOP:  cpu time      2.2915: real time      2.3012

 eigenvalue-minimisations  : 13168
 total energy-change (2. order) : 0.2385854E-01  (-0.1397169E+00)
 number of electron     204.9999804 magnetization 
 augmentation part       44.4071777 magnetization 

 Broyden mixing:
  rms(total) = 0.30881E+00    rms(broyden)= 0.30876E+00
  rms(prec ) = 0.43403E+00
  weight for this iteration     100.00

 eigenvalues of (default mixing * dielectric matrix)
  average eigenvalue GAMMA=   1.1841
  2.2186  1.5970  0.5637  0.3572

 Free energy of the ion-electron system (eV)
  ---------------------------------------------------
  alpha Z        PSCENC =      1828.07255639
  Ewald energy   TEWEN  =    -20990.38062955
  -Hartree energ DENC   =     -3576.91973199
  -exchange      EXHF   =         0.00000000
  -V(xc)+E(xc)   XCENC  =       766.19246872
  PAW double counting   =     26720.71602731   -26461.39775290
  entropy T*S    EENTRO =        -0.00166598
  eigenvalues    EBANDS =     -2970.80896023
  atomic energy  EATOM  =     24500.96410755
  Solvation  Ediel_sol  =         0.00000000
  ---------------------------------------------------
  free energy    TOTEN  =      -183.56358067 eV

  energy without entropy =     -183.56191470  energy(sigma->0) =     -183.56274768


--------------------------------------------------------------------------------------------------------




--------------------------------------- Iteration      1(  10)  ---------------------------------------


    POTLOK:  cpu time      0.0044: real time      0.0047
    SETDIJ:  cpu time      0.0017: real time      0.0017
     EDDAV:  cpu time      2.1671: real time      2.1765
       DOS:  cpu time      0.0028: real time      0.0028
    CHARGE:  cpu time      0.0573: real time      0.0575
    MIXING:  cpu time      0.0003: real time      0.0003
    --------------------------------------------
      LOOP:  cpu time      2.2336: real time      2.2434

 eigenvalue-minimisations  : 12728
 total energy-change (2. order) : 0.2819960E-01  (-0.3385102E-01)
 number of electron     204.9999805 magnetization 
 augmentation part       44.3525610 magnetization 

 Broyden mixing:
  rms(total) = 0.11716E+00    rms(broyden)= 0.11708E+00
  rms(prec ) = 0.20734E+00
  weight for this iteration     100.00

 eigenvalues of (default mixing * dielectric matrix)
  average eigenvalue GAMMA=   1.1625
  2.5103  1.6829  0.8205  0.4317  0.3673

 Free energy of the ion-electron system (eV)
  ---------------------------------------------------
  alpha Z        PSCENC =      1828.07255639
  Ewald energy   TEWEN  =    -20990.38062955
  -Hartree energ DENC   =     -3579.47003192
  -exchange      EXHF   =         0.00000000
  -V(xc)+E(xc)   XCENC  =       766.27863986
  PAW double counting   =     27068.27988023   -26807.41766294
  entropy T*S    EENTRO =        -0.00215057
  eigenvalues    EBANDS =     -2969.86009012
  atomic energy  EATOM  =     24500.96410755
  Solvation  Ediel_sol  =         0.00000000
  ---------------------------------------------------
  free energy    TOTEN  =      -183.53538107 eV

  energy without entropy =     -183.53323050  energy(sigma->0) =     -183.53430579


--------------------------------------------------------------------------------------------------------




--------------------------------------- Iteration      1(  11)  ---------------------------------------


    POTLOK:  cpu time      0.0044: real time      0.0047
    SETDIJ:  cpu time      0.0017: real time      0.0017
     EDDAV:  cpu time      2.1744: real time      2.1832
       DOS:  cpu time      0.0030: real time      0.0030
    CHARGE:  cpu time      0.0548: real time      0.0550
    MIXING:  cpu time      0.0003: real time      0.0003
    --------------------------------------------
      LOOP:  cpu time      2.2386: real time      2.2479

 eigenvalue-minimisations  : 12696
 total energy-change (2. order) : 0.7497273E-02  (-0.9567350E-02)
 number of electron     204.9999805 magnetization 
 augmentation part       44.3210531 magnetization 

 Broyden mixing:
  rms(total) = 0.41992E-01    rms(broyden)= 0.41914E-01
  rms(prec ) = 0.91937E-01
  weight for this iteration     100.00

 eigenvalues of (default mixing * dielectric matrix)
  average eigenvalue GAMMA=   1.0657
  2.4501  1.6974  0.8939  0.5393  0.4553  0.3579

 Free energy of the ion-electron system (eV)
  ---------------------------------------------------
  alpha Z        PSCENC =      1828.07255639
  Ewald energy   TEWEN  =    -20990.38062955
  -Hartree energ DENC   =     -3581.84000129
  -exchange      EXHF   =         0.00000000
  -V(xc)+E(xc)   XCENC  =       766.39067000
  PAW double counting   =     27191.94922479   -26929.94628889
  entropy T*S    EENTRO =        -0.00197690
  eigenvalues    EBANDS =     -2968.73554590
  atomic energy  EATOM  =     24500.96410755
  Solvation  Ediel_sol  =         0.00000000
  ---------------------------------------------------
  free energy    TOTEN  =      -183.52788380 eV

  energy without entropy =     -183.52590690  energy(sigma->0) =     -183.52689535


--------------------------------------------------------------------------------------------------------




--------------------------------------- Iteration      1(  12)  ---------------------------------------


    POTLOK:  cpu time      0.0044: real time      0.0047
    SETDIJ:  cpu time      0.0017: real time      0.0017
     EDDAV:  cpu time      2.2067: real time      2.2162
       DOS:  cpu time      0.0030: real time      0.0030
    CHARGE:  cpu time      0.0550: real time      0.0552
    MIXING:  cpu time      0.0003: real time      0.0003
    --------------------------------------------
      LOOP:  cpu time      2.2713: real time      2.2811

 eigenvalue-minimisations  : 12944
 total energy-change (2. order) : 0.3515173E-02  (-0.2111218E-02)
 number of electron     204.9999805 magnetization 
 augmentation part       44.3280115 magnetization 

 Broyden mixing:
  rms(total) = 0.17785E-01    rms(broyden)= 0.17763E-01
  rms(prec ) = 0.28122E-01
  weight for this iteration     100.00

 eigenvalues of (default mixing * dielectric matrix)
  average eigenvalue GAMMA=   1.0777
  2.4423  1.7624  1.0224  1.0224  0.4930  0.3615  0.4403

 Free energy of the ion-electron system (eV)
  ---------------------------------------------------
  alpha Z        PSCENC =      1828.07255639
  Ewald energy   TEWEN  =    -20990.38062955
  -Hartree energ DENC   =     -3581.73585620
  -exchange      EXHF   =         0.00000000
  -V(xc)+E(xc)   XCENC  =       766.39607722
  PAW double counting   =     27200.33305123   -26938.02649725
  entropy T*S    EENTRO =        -0.00193605
  eigenvalues    EBANDS =     -2969.14524196
  atomic energy  EATOM  =     24500.96410755
  Solvation  Ediel_sol  =         0.00000000
  ---------------------------------------------------
  free energy    TOTEN  =      -183.52436862 eV

  energy without entropy =     -183.52243258  energy(sigma->0) =     -183.52340060


--------------------------------------------------------------------------------------------------------




--------------------------------------- Iteration      1(  13)  ---------------------------------------


    POTLOK:  cpu time      0.0045: real time      0.0047
    SETDIJ:  cpu time      0.0018: real time      0.0018
     EDDAV:  cpu time      2.2442: real time      2.2545
       DOS:  cpu time      0.0027: real time      0.0027
    CHARGE:  cpu time      0.0549: real time      0.0551
    MIXING:  cpu time      0.0003: real time      0.0003
    --------------------------------------------
      LOOP:  cpu time      2.3085: real time      2.3191

 eigenvalue-minimisations  : 13056
 total energy-change (2. order) : 0.2945355E-04  (-0.3789797E-03)
 number of electron     204.9999805 magnetization 
 augmentation part       44.3312471 magnetization 

 Broyden mixing:
  rms(total) = 0.13584E-01    rms(broyden)= 0.13578E-01
  rms(prec ) = 0.21575E-01
  weight for this iteration     100.00

 eigenvalues of (default mixing * dielectric matrix)
  average eigenvalue GAMMA=   1.0866
  2.5671  1.9394  1.4546  0.9553  0.4977  0.4977  0.3608  0.4203

 Free energy of the ion-electron system (eV)
  ---------------------------------------------------
  alpha Z        PSCENC =      1828.07255639
  Ewald energy   TEWEN  =    -20990.38062955
  -Hartree energ DENC   =     -3581.68465037
  -exchange      EXHF   =         0.00000000
  -V(xc)+E(xc)   XCENC  =       766.39401083
  PAW double counting   =     27207.21084641   -26944.71539222
  entropy T*S    EENTRO =        -0.00193245
  eigenvalues    EBANDS =     -2969.38325576
  atomic energy  EATOM  =     24500.96410755
  Solvation  Ediel_sol  =         0.00000000
  ---------------------------------------------------
  free energy    TOTEN  =      -183.52433917 eV

  energy without entropy =     -183.52240672  energy(sigma->0) =     -183.52337295


--------------------------------------------------------------------------------------------------------




--------------------------------------- Iteration      1(  14)  ---------------------------------------


    POTLOK:  cpu time      0.0045: real time      0.0047
    SETDIJ:  cpu time      0.0017: real time      0.0017
     EDDAV:  cpu time      2.2366: real time      2.2458
       DOS:  cpu time      0.0029: real time      0.0029
    CHARGE:  cpu time      0.0542: real time      0.0544
    MIXING:  cpu time      0.0003: real time      0.0003
    --------------------------------------------
      LOOP:  cpu time      2.3002: real time      2.3098

 eigenvalue-minimisations  : 13184
 total energy-change (2. order) : 0.7593806E-04  (-0.9132843E-04)
 number of electron     204.9999805 magnetization 
 augmentation part       44.3329130 magnetization 

 Broyden mixing:
  rms(total) = 0.66411E-02    rms(broyden)= 0.66373E-02
  rms(prec ) = 0.12430E-01
  weight for this iteration     100.00

 eigenvalues of (default mixing * dielectric matrix)
  average eigenvalue GAMMA=   1.0474
  2.6397  1.9683  1.4593  0.9736  0.6713  0.5271  0.4447  0.3635  0.3791

 Free energy of the ion-electron system (eV)
  ---------------------------------------------------
  alpha Z        PSCENC =      1828.07255639
  Ewald energy   TEWEN  =    -20990.38062955
  -Hartree energ DENC   =     -3581.78307980
  -exchange      EXHF   =         0.00000000
  -V(xc)+E(xc)   XCENC  =       766.39818793
  PAW double counting   =     27219.07470893   -26956.33287805
  entropy T*S    EENTRO =        -0.00193025
  eigenvalues    EBANDS =     -2969.53530638
  atomic energy  EATOM  =     24500.96410755
  Solvation  Ediel_sol  =         0.00000000
  ---------------------------------------------------
  free energy    TOTEN  =      -183.52426323 eV

  energy without entropy =     -183.52233299  energy(sigma->0) =     -183.52329811


--------------------------------------------------------------------------------------------------------




--------------------------------------- Iteration      1(  15)  ---------------------------------------


    POTLOK:  cpu time      0.0044: real time      0.0047
    SETDIJ:  cpu time      0.0017: real time      0.0017
     EDDAV:  cpu time      2.3773: real time      2.3913
       DOS:  cpu time      0.0030: real time      0.0030
    CHARGE:  cpu time      0.0539: real time      0.0542
    MIXING:  cpu time      0.0004: real time      0.0004
    --------------------------------------------
      LOOP:  cpu time      2.4407: real time      2.4552

 eigenvalue-minimisations  : 13424
 total energy-change (2. order) : 0.3784381E-04  (-0.2388925E-04)
[...]
     25     -25.6310      2.00000
     26     -25.6281      2.00000
     27     -25.6152      2.00000
     28     -25.5850      2.00000
     29     -25.5745      2.00000
     30     -25.5500      2.00000
     31     -25.5231      2.00000
     32     -25.5167      2.00000
     33     -25.0813      2.00000
     34     -25.0643      2.00000
     35     -25.0381      2.00000
     36     -25.0323      2.00000
     37     -24.9630      2.00000
     38     -24.8932      2.00000
     39     -24.8867      2.00000
     40     -24.8077      2.00000
     41     -24.7889      2.00000
     42     -24.7353      2.00000
     43     -24.6853      2.00000
     44     -24.6091      2.00000
     45     -24.6022      2.00000
     46     -24.5813      2.00000
     47     -24.5638      2.00000
     48     -21.7616      2.00000
     49     -21.7571      2.00000
     50     -21.6311      2.00000
     51     -21.5436      2.00000
     52     -21.5398      2.00000
     53     -21.5340      2.00000
     54     -21.5269      2.00000
     55     -21.5209      2.00000
     56     -21.5160      2.00000
     57     -21.3099      2.00000
     58     -21.2018      2.00000
     59     -21.1977      2.00000
     60       3.6292      2.00000
     61       4.1657      2.00000
     62       4.3899      2.00000
     63       4.5848      2.00000
     64       4.9036      2.00000
     65       5.2241      2.00000
     66       5.4511      2.00000
     67       5.8845      2.00000
     68       6.2439      2.00000
     69       6.2734      2.00000
     70       6.3198      2.00000
     71       6.3339      2.00000
     72       6.4024      2.00000
     73       6.4914      2.00000
     74       6.5331      2.00000
     75       6.5839      2.00000
     76       6.6001      2.00000
     77       6.6394      2.00000
     78       6.6769      2.00000
     79       6.7023      2.00000
     80       7.0243      2.00000
     81       7.0770      2.00000
     82       7.1335      2.00000
     83       7.2002      2.00000
     84       7.2120      2.00000
     85       7.2577      2.00000
     86       7.3022      2.00000
     87       7.3390      2.00000
     88       7.3626      2.00000
     89       7.3891      2.00000
     90       7.4000      2.00000
     91       7.4492      2.00000
     92       7.4549      2.00000
     93       7.4837      2.00000
     94       7.4989      2.00000
     95       7.5459      2.00000
     96       7.5665      2.00000
     97       7.5895      2.00000
     98       7.6427      2.00000
     99       7.6704      2.00000
    100       7.7624      2.00000
    101       7.7700      2.00000
    102       7.8614      2.00000
    103       7.8995      2.00000
    104       7.9175      2.00000
    105       7.9275      2.00000
    106       7.9657      2.00000
    107       8.3514      2.00000
    108      11.1509      0.00000
    109      11.2044      0.00000
    110      11.2295      0.00000
    111      11.3365      0.00000
    112      11.3929      0.00000
    113      11.4381      0.00000
    114      11.4908      0.00000
    115      11.5457      0.00000
    116      11.5846      0.00000
    117      11.6172      0.00000
    118      11.6811      0.00000
    119      11.7129      0.00000
    120      11.7281      0.00000
    121      11.8071      0.00000
    122      11.8326      0.00000
    123      11.8614      0.00000
    124      11.9351      0.00000

 k-point    39 :       0.4000   -0.4000    0.4000
  band No.  band energies     occupation 
      1     -64.6706      2.00000
      2     -64.6328      2.00000
      3     -64.5605      2.00000
      4     -51.4850      2.00000
      5     -51.4486      2.00000
      6     -51.4485      2.00000
      7     -51.3883      2.00000
      8     -45.4658      2.00000
      9     -45.4540      2.00000
     10     -45.4504      2.00000
     11     -45.2821      2.00000
     12     -29.0053      2.00000
     13     -28.9477      2.00000
     14     -28.8797      2.00000
     15     -28.8706      2.00000
     16     -28.8396      2.00000
     17     -28.8395      2.00000
     18     -28.7773      2.00000
     19     -28.6891      2.00000
     20     -28.6491      2.00000
     21     -25.6678      2.00000
     22     -25.6603      2.00000
     23     -25.6488      2.00000
     24     -25.6418      2.00000
     25     -25.6308      2.00000
     26     -25.6250      2.00000
     27     -25.6145      2.00000
     28     -25.5849      2.00000
     29     -25.5810      2.00000
     30     -25.5424      2.00000
     31     -25.5326      2.00000
     32     -25.5129      2.00000
     33     -25.0708      2.00000
     34     -25.0677      2.00000
     35     -25.0516      2.00000
     36     -25.0261      2.00000
     37     -24.9553      2.00000
     38     -24.8909      2.00000
     39     -24.8900      2.00000
     40     -24.7987      2.00000
     41     -24.7973      2.00000
     42     -24.7273      2.00000
     43     -24.6894      2.00000
     44     -24.6236      2.00000
     45     -24.5930      2.00000
     46     -24.5861      2.00000
     47     -24.5626      2.00000
     48     -21.7606      2.00000
     49     -21.7552      2.00000
     50     -21.6326      2.00000
     51     -21.5409      2.00000
     52     -21.5408      2.00000
     53     -21.5368      2.00000
     54     -21.5254      2.00000
     55     -21.5227      2.00000
     56     -21.5155      2.00000
     57     -21.3108      2.00000
     58     -21.2016      2.00000
     59     -21.1972      2.00000
     60       3.6111      2.00000
     61       4.2644      2.00000
     62       4.3729      2.00000
     63       4.4724      2.00000
     64       5.0502      2.00000
     65       5.2101      2.00000
     66       5.3030      2.00000
     67       5.9512      2.00000
     68       6.2787      2.00000
     69       6.2794      2.00000
     70       6.3253      2.00000
     71       6.3341      2.00000
     72       6.3651      2.00000
     73       6.4672      2.00000
     74       6.5018      2.00000
     75       6.5415      2.00000
     76       6.6230      2.00000
     77       6.6681      2.00000
     78       6.7019      2.00000
     79       6.7104      2.00000
     80       7.0528      2.00000
     81       7.0695      2.00000
     82       7.1316      2.00000
     83       7.2227      2.00000
     84       7.2358      2.00000
     85       7.2518      2.00000
     86       7.2928      2.00000
     87       7.3201      2.00000
     88       7.3514      2.00000
     89       7.3794      2.00000
     90       7.3816      2.00000
     91       7.4383      2.00000
     92       7.4514      2.00000
     93       7.5001      2.00000
     94       7.5249      2.00000
     95       7.5498      2.00000
     96       7.5503      2.00000
     97       7.5828      2.00000
     98       7.6222      2.00000
     99       7.7298      2.00000
    100       7.7688      2.00000
    101       7.7935      2.00000
    102       7.8086      2.00000
    103       7.8951      2.00000
    104       7.9091      2.00000
    105       7.9315      2.00000
    106       7.9430      2.00000
    107       8.3643      2.00000
    108      11.1232      0.00000
    109      11.1804      0.00000
    110      11.3008      0.00000
    111      11.3064      0.00000
    112      11.3800      0.00000
    113      11.3861      0.00000
    114      11.4484      0.00000
    115      11.5598      0.00000
    116      11.5770      0.00000
    117      11.6645      0.00000
    118      11.7169      0.00000
    119      11.7483      0.00000
    120      11.7594      0.00000
    121      11.8034      0.00000
    122      11.8125      0.00000
    123      11.8849      0.00000
    124      11.9089      0.00000


--------------------------------------------------------------------------------------------------------


 soft charge-density along one line, spin component           1
         0         1         2         3         4         5         6         7         8         9
 total charge-density along one line
 
 pseudopotential strength for first ion, spin component:           1
  5.827 -20.571   0.002   0.001  -0.001  -0.003  -0.003   0.002
-20.571   9.461   0.002   0.002  -0.002  -0.000  -0.000   0.000
  0.002   0.002  -9.920  -0.001   0.001   6.206   0.001  -0.001
  0.001   0.002  -0.001  -9.922   0.002   0.001   6.208  -0.002
 -0.001  -0.002   0.001   0.002  -9.922  -0.001  -0.002   6.208
 -0.003  -0.000   6.206   0.001  -0.001   7.809  -0.001   0.000
 -0.003  -0.000   0.001   6.208  -0.002  -0.001   7.808   0.001
  0.002   0.000  -0.001  -0.002   6.208   0.000   0.001   7.808
  0.000   0.000  -0.001   0.000   0.001   0.001  -0.001  -0.002
 -0.000  -0.000   0.001   0.001   0.000  -0.001  -0.002  -0.001
 -0.001  -0.000  -0.001   0.001   0.000   0.001  -0.001  -0.001
  0.001   0.001   0.000  -0.001   0.001  -0.001   0.001  -0.001
 -0.001  -0.000  -0.001  -0.000  -0.001   0.001  -0.000   0.001
  0.001   0.000  -0.001   0.001   0.002   0.002  -0.001  -0.002
 -0.001  -0.000   0.001   0.002   0.001  -0.002  -0.002  -0.001
 -0.001  -0.000  -0.001   0.001   0.001   0.001  -0.001  -0.001
  0.002   0.001   0.001  -0.001   0.001  -0.001   0.002  -0.002
 -0.001  -0.000  -0.001  -0.000  -0.001   0.002  -0.000   0.001
 total augmentation occupancy for first ion, spin component:           1
  1.995  -0.048   0.000   0.000  -0.000   0.000  -0.000   0.000   0.003  -0.003  -0.001   0.004  -0.002  -0.003   0.003   0.001
 -0.048   1.299   0.001  -0.000   0.000  -0.003  -0.002   0.002  -0.003   0.003  -0.015   0.023  -0.024   0.008  -0.008   0.006
  0.000   0.001   1.996   0.000  -0.000  -0.031  -0.001   0.001   0.002  -0.002  -0.002  -0.012  -0.004  -0.001   0.001   0.001
  0.000  -0.000   0.000   1.996  -0.000  -0.001  -0.031   0.001  -0.012   0.001   0.002   0.002   0.000   0.007  -0.000  -0.001
 -0.000   0.000  -0.000  -0.000   1.996   0.001   0.001  -0.031   0.000  -0.012   0.001  -0.002  -0.001  -0.000   0.007  -0.001
  0.000  -0.003  -0.031  -0.001   0.001   0.069   0.001  -0.001   0.004  -0.004   0.003   0.010   0.006  -0.001   0.001  -0.002
 -0.000  -0.002  -0.001  -0.031   0.001   0.001   0.066  -0.001   0.010  -0.011  -0.005   0.003  -0.000  -0.006   0.007   0.002
  0.000   0.002   0.001   0.001  -0.031  -0.001  -0.001   0.066  -0.011   0.010  -0.002  -0.003   0.004   0.006  -0.006   0.001
  0.003  -0.003   0.002  -0.012   0.000   0.004   0.010  -0.011   3.272   0.043  -0.022   0.039  -0.002  -1.365  -0.020   0.008
 -0.003   0.003  -0.002   0.001  -0.012  -0.004  -0.011   0.010   0.043   3.272  -0.012  -0.040   0.021  -0.019  -1.364   0.004
 -0.001  -0.015  -0.002   0.002   0.001   0.003  -0.005  -0.002  -0.022  -0.012   2.540   0.017   0.021   0.008   0.004  -1.148
  0.004   0.023  -0.012   0.002  -0.002   0.010   0.003  -0.003   0.039  -0.040   0.017   3.276   0.026  -0.027   0.027  -0.007
 -0.002  -0.024  -0.004   0.000  -0.001   0.006  -0.000   0.004  -0.002   0.021   0.021   0.026   2.569   0.000  -0.007  -0.008
 -0.003   0.008  -0.001   0.007  -0.000  -0.001  -0.006   0.006  -1.365  -0.019   0.008  -0.027   0.000   0.582   0.009  -0.003
  0.003  -0.008   0.001  -0.000   0.007   0.001   0.007  -0.006  -0.020  -1.364   0.004   0.027  -0.007   0.009   0.581  -0.002
  0.001   0.006   0.001  -0.001  -0.001  -0.002   0.002   0.001   0.008   0.004  -1.148  -0.007  -0.008  -0.003  -0.002   0.527
 -0.004  -0.011   0.008  -0.001   0.002  -0.006  -0.001   0.001  -0.027   0.028  -0.006  -1.362  -0.010   0.016  -0.016   0.003
  0.002   0.010   0.002   0.000   0.001  -0.003   0.000  -0.002   0.001  -0.008  -0.008  -0.011  -1.158  -0.000   0.003   0.003


------------------------ aborting loop because EDIFF is reached ----------------------------------------


    CHARGE:  cpu time      0.0565: real time      0.0567
    FORLOC:  cpu time      0.0005: real time      0.0005
    FORNL :  cpu time      0.4853: real time      0.4869
    STRESS:  cpu time      0.6929: real time      0.6957
    FORCOR:  cpu time      0.0067: real time      0.0067
    FORHAR:  cpu time      0.0015: real time      0.0016
    MIXING:  cpu time      0.0006: real time      0.0006
    OFIELD:  cpu time      0.0000: real time      0.0000

  FORCE on cell =-STRESS in cart. coord.  units (eV):
  Direction    XX          YY          ZZ          XY          YZ          ZX
  --------------------------------------------------------------------------------------
  Alpha Z  1828.07256  1828.07256  1828.07256
  Ewald   -6967.96491 -7054.51746 -6967.96491    -2.10768    -2.10768    21.07683
  Hartree  1222.20113  1137.46362  1222.20113    -1.88738    -1.88738    18.48165
  E(xc)    -936.37893  -936.38698  -936.37893     0.00118     0.00118    -0.01785
  Local    1535.97201  1707.77356  1535.97201     3.98208     3.98208   -38.21917
  n-local  -401.34018  -401.96479  -401.29937    -0.34108     0.10585    -0.15614
  augment   516.92780   516.97501   516.92780     0.03286     0.03281    -0.31920
  Kinetic  3187.59261  3180.15363  3172.01070     1.97815    -1.91892    -0.55104
  Fock        0.00000     0.00000     0.00000     0.00000     0.00000     0.00000
  -------------------------------------------------------------------------------------
  Total     -22.68846   -22.43087   -22.68846    -0.06725    -0.06725     0.29463
  in kB    -127.59626  -126.14759  -127.59626    -0.37823    -0.37823     1.65698
  external pressure =     -127.11 kB  Pullay stress =        0.00 kB


 VOLUME and BASIS-vectors are now :
 -----------------------------------------------------------------------------
  energy-cutoff  :      250.00
  volume of cell :      284.89
      direct lattice vectors                 reciprocal lattice vectors
     6.580000000  0.000000000  0.000000000     0.151975684  0.000000000  0.000000000
     0.000000000  6.580000000  0.000000000     0.000000000  0.151975684  0.000000000
     0.000000000  0.000000000  6.580000000     0.000000000  0.000000000  0.151975684

  length of vectors
     6.580000000  6.580000000  6.580000000     0.151975684  0.151975684  0.151975684


 FORCES acting on ions
    electron-ion (+dipol)            ewald-force                    non-local-force                 convergence-correction
 -----------------------------------------------------------------------------------------------
   -.104E+02 0.512E+02 0.104E+02   0.102E+02 -.510E+02 -.102E+02   -.288E-01 0.160E+00 0.212E-01   -.629E-04 0.997E-04 0.613E-04
   0.104E+02 -.512E+02 0.104E+02   -.102E+02 0.510E+02 -.102E+02   0.261E-01 -.134E+00 0.261E-01   0.588E-04 -.109E-03 0.588E-04
   0.204E+02 -.822E+02 0.204E+02   -.204E+02 0.816E+02 -.204E+02   0.405E-01 0.791E-01 0.405E-01   -.819E-04 0.159E-05 -.819E-04
   0.104E+02 0.512E+02 -.104E+02   -.102E+02 -.510E+02 0.102E+02   0.212E-01 0.160E+00 -.288E-01   0.613E-04 0.997E-04 -.629E-04
   -.219E+02 0.882E+02 -.219E+02   0.220E+02 -.879E+02 0.220E+02   -.218E-01 0.546E-01 -.218E-01   0.792E-04 0.550E-04 0.792E-04
   0.219E+02 -.882E+02 -.219E+02   -.220E+02 0.879E+02 0.220E+02   0.194E-01 -.778E-01 -.179E-01   -.815E-04 -.382E-04 0.866E-04
   -.220E+02 -.884E+02 -.220E+02   0.220E+02 0.879E+02 0.220E+02   -.224E-01 0.105E+00 -.224E-01   0.887E-04 -.631E-04 0.887E-04
   -.219E+02 -.882E+02 0.219E+02   0.220E+02 0.879E+02 -.220E+02   -.179E-01 -.778E-01 0.194E-01   0.866E-04 -.382E-04 -.815E-04
   -.889E+01 -.434E+02 -.889E+01   0.863E+01 0.431E+02 0.863E+01   0.307E-02 -.552E-01 0.307E-02   -.583E-04 -.119E-03 -.583E-04
   0.888E+01 -.433E+02 -.888E+01   -.863E+01 0.431E+02 0.863E+01   0.296E-01 -.110E+00 -.319E-01   0.609E-04 -.138E-03 -.529E-04
   -.888E+01 -.433E+02 0.888E+01   0.863E+01 0.431E+02 -.863E+01   -.319E-01 -.110E+00 0.296E-01   -.529E-04 -.138E-03 0.609E-04
   0.173E+02 0.696E+02 -.173E+02   -.173E+02 -.690E+02 0.173E+02   0.209E-01 -.204E-01 -.179E-01   -.515E-04 0.104E-03 0.450E-04
   -.173E+02 0.696E+02 0.173E+02   0.173E+02 -.690E+02 -.173E+02   -.179E-01 -.204E-01 0.209E-01   0.450E-04 0.104E-03 -.515E-04
   0.111E+02 0.551E+02 0.111E+02   -.110E+02 -.549E+02 -.110E+02   0.233E-01 0.526E-02 0.233E-01   0.631E-04 0.335E-05 0.631E-04
   -.111E+02 0.551E+02 -.111E+02   0.110E+02 -.549E+02 0.110E+02   -.256E-01 0.253E-01 -.256E-01   -.552E-04 0.341E-04 -.552E-04
   0.220E+02 0.881E+02 0.220E+02   -.220E+02 -.879E+02 -.220E+02   -.568E-02 0.143E+00 -.568E-02   -.942E-04 0.325E-04 -.942E-04
 -----------------------------------------------------------------------------------------------
   -.123E-01 -.127E+00 -.123E-01   -.675E-13 -.114E-12 0.711E-13   0.123E-01 0.127E+00 0.123E-01   0.521E-05 -.109E-03 0.521E-05
 
 
 POSITION                                       TOTAL-FORCE (eV/Angst)
 -----------------------------------------------------------------------------------
      0.00000      3.29000      0.00000        -0.238885      0.365910      0.244593
      3.29000      0.00000      0.00000         0.222059     -0.328830      0.222059
      1.64500      4.93500      4.93500         0.057124     -0.544232      0.057124
      3.29000      3.29000      3.29000         0.244593      0.365910     -0.238885
      4.93500      1.64500      1.64500         0.004703      0.360318      0.004703
      1.64500      4.93500      1.64500        -0.003469     -0.376899      0.004459
      4.93500      4.93500      1.64500        -0.009813     -0.411409     -0.009813
      4.93500      4.93500      4.93500         0.004459     -0.376899     -0.003469
      0.00000      0.00000      3.29000        -0.262661     -0.328691     -0.262661
      3.29000      0.00000      3.29000         0.276313     -0.300997     -0.283207
      0.00000      0.00000      0.00000        -0.283207     -0.300997      0.276313
      1.64500      1.64500      1.64500         0.039080      0.536906     -0.043812
      4.93500      1.64500      4.93500        -0.043812      0.536906      0.039080
      3.29000      3.29000      0.00000         0.181589      0.206088      0.181589
      0.00000      3.29000      3.29000        -0.178221      0.204505     -0.178221
      1.64500      1.64500      4.93500        -0.009852      0.392410     -0.009852
 -----------------------------------------------------------------------------------
    total drift:                               -0.000000     -0.000043     -0.000000


--------------------------------------------------------------------------------------------------------



  FREE ENERGIE OF THE ION-ELECTRON SYSTEM (eV)
  ---------------------------------------------------
  free  energy   TOTEN  =      -183.52420680 eV

  energy  without entropy=     -183.52227847  energy(sigma->0) =     -183.52324263
 


--------------------------------------------------------------------------------------------------------


    POTLOK:  cpu time      0.0061: real time      0.0062


--------------------------------------------------------------------------------------------------------


     LOOP+:  cpu time     50.5922: real time     50.8433
    4ORBIT:  cpu time      0.0000: real time      0.0000

 total amount of memory used by VASP MPI-rank0    41692. kBytes
=======================================================================

   base      :      30000. kBytes
   nonl-proj :       5180. kBytes
   fftplans  :        456. kBytes
   grid      :        919. kBytes
   one-center:         31. kBytes
   wavefun   :       5106. kBytes
 
  
  
 General timing and accounting informations for this job:
 ========================================================
  
                  Total CPU time used (sec):       53.763
                            User time (sec):       52.763
                          System time (sec):        1.000
                         Elapsed time (sec):       55.584
  
                   Maximum memory used (kb):       82596.
                   Average memory used (kb):          N/A
  
                          Minor page faults:        11671
                          Major page faults:            0
                 Voluntary context switches:          474
