 vasp.6.3.1 04May22 (build Jul 26 2022 04:02:40) complex                        
  
 executed on             LinuxIFC date 2023.11.30  03:30:31
 running on   48 total cores
 distrk:  each k-point on   48 cores,    1 groups
 distr:  one band on NCORE=  12 cores,    4 groups


--------------------------------------------------------------------------------------------------------


 INCAR:
   ISTART = 0
   NWRITE = 2
   PREC = Accurate
   ENCUT = 250
   GGA = PE
   NSW = 0
   ISIF = 2
   ISYM = 2
   NBLOCK = 1
   KBLOCK = 1
   IBRION = -1
   NELM = 80
   EDIFF = 1E-08
   EDIFFG = -0.01
   ALGO = Normal
   LDIAG = .TRUE.
   LREAL = .FALSE.
   ISMEAR = 0
   SIGMA = 0.02
   ICHARG = 2
   LPLANE = .TRUE.
   NPAR = 4
   LSCALU = .FALSE.
   NSIM = 4
   LWAVE = .FALSE.
   LCHARG = .FALSE.
   ICORELEVEL = 1

 POTCAR:    PAW_PBE Nb_sv 25May2007               
 POTCAR:    PAW_PBE Mo_sv 02Feb2006               
 POTCAR:    PAW_PBE Ta_pv 07Sep2000               
 POTCAR:    PAW_PBE W_sv 04Sep2015                
 POTCAR:    PAW_PBE Nb_sv 25May2007               
   SHA256 =  0e8fc07c9fcd1164cf2ade22d0399fd28f85e91cd773dfa6cf24839a48c95e24 Nb_sv/POTCAR          
   COPYR  = (c) Copyright 25May2007 Georg Kresse                                                    
   COPYR  = This file is part of the software VASP. Any use, copying, and all other rights are regul
   COPYR  = If you do not have a valid VASP license, you may not use, copy or distribute this file. 
   VRHFIN =Nb: 4p5s4d                                                                               
   LEXCH  = PE                                                                                      
   EATOM  =  1555.1913 eV,  114.3033 Ry                                                             
                                                                                                    
   TITEL  = PAW_PBE Nb_sv 25May2007                                                                 
   LULTRA =        F    use ultrasoft PP ?                                                          
   IUNSCR =        1    unscreen: 0-lin 1-nonlin 2-no                                               
   RPACOR =    1.800    partial core radius                                                         
   POMASS =   92.910; ZVAL   =   13.000    mass and valenz                                          
   RCORE  =    2.400    outmost cutoff radius                                                       
   RWIGS  =    2.400; RWIGS  =    1.270    wigner-seitz radius (au A)                               
   ENMAX  =  293.235; ENMIN  =  219.927 eV                                                          
   ICORE  =        3    local potential                                                             
   LCOR   =        T    correct aug charges                                                         
   LPAW   =        T    paw PP                                                                      
   EAUG   =  455.659                                                                                
   DEXC   =    0.000                                                                                
   RMAX   =    2.456    core radius for proj-oper                                                   
   RAUG   =    1.300    factor for augmentation sphere                                              
   RDEP   =    2.451    radius for radial grids                                                     
   RDEPT  =    1.956    core radius for aug-charge                                                  
                                                                                                    
   Atomic configuration                                                                             
   11 entries                                                                                       
     n  l   j            E        occ.                                                              
     1  0  0.50    -18805.2457   2.0000                                                             
     2  0  0.50     -2630.2869   2.0000                                                             
     2  1  1.50     -2348.4046   6.0000                                                             
     3  0  0.50      -438.8757   2.0000                                                             
     3  1  1.50      -346.7588   6.0000                                                             
     3  2  2.50      -196.2560  10.0000                                                             
     4  0  0.50       -58.3859   2.0000                                                             
     5  0  0.50        -3.9816   1.0000                                                             
     4  1  1.50       -34.5141   6.0000                                                             
     4  2  2.50        -3.0408   4.0000                                                             
     4  3  2.50        -1.3606   0.0000                                                             
   Description                                                                                      
     l       E           TYP  RCUT    TYP  RCUT                                                     
     0    -58.3859094     23  2.200                                                                 
     0     -3.9816262     23  2.200                                                                 
     1    -34.5140738     23  2.200                                                                 
     1     13.6058260     23  2.200                                                                 
     2     -3.0408010     23  2.200                                                                 
     2     -0.1283038     23  2.200                                                                 
     3     -1.3605826     23  2.400                                                                 
  local pseudopotential read in
  partial core-charges read in
  partial kinetic energy density read in
  atomic valenz-charges read in
  non local Contribution for L=           0  read in
    real space projection operators read in
  non local Contribution for L=           0  read in
    real space projection operators read in
  non local Contribution for L=           1  read in
    real space projection operators read in
  non local Contribution for L=           1  read in
    real space projection operators read in
  non local Contribution for L=           2  read in
    real space projection operators read in
  non local Contribution for L=           2  read in
    real space projection operators read in
    PAW grid and wavefunctions read in
 
   number of l-projection  operators is LMAX  =           6
   number of lm-projection operators is LMMAX =          18
 
 POTCAR:    PAW_PBE Mo_sv 02Feb2006               
   SHA256 =  2731df97e41766cc617548c5a8267718fdef1f509ac6bafa01e745abea2bdfaa Mo_sv/POTCAR          
   COPYR  = (c) Copyright 02Feb2006 Georg Kresse                                                    
   COPYR  = This file is part of the software VASP. Any use, copying, and all other rights are regul
   COPYR  = If you do not have a valid VASP license, you may not use, copy or distribute this file. 
   VRHFIN =Mo: 4p5s4d                                                                               
   LEXCH  = PE                                                                                      
   EATOM  =  1862.2866 eV,  136.8742 Ry                                                             
                                                                                                    
   TITEL  = PAW_PBE Mo_sv 02Feb2006                                                                 
   LULTRA =        F    use ultrasoft PP ?                                                          
   IUNSCR =        1    unscreen: 0-lin 1-nonlin 2-no                                               
   RPACOR =    2.200    partial core radius                                                         
   POMASS =   95.940; ZVAL   =   14.000    mass and valenz                                          
   RCORE  =    2.500    outmost cutoff radius                                                       
   RWIGS  =    2.750; RWIGS  =    1.455    wigner-seitz radius (au A)                               
   ENMAX  =  242.676; ENMIN  =  182.007 eV                                                          
   ICORE  =        3    local potential                                                             
   LCOR   =        T    correct aug charges                                                         
   LPAW   =        T    paw PP                                                                      
   EAUG   =  446.014                                                                                
   DEXC   =    0.000                                                                                
   RMAX   =    2.563    core radius for proj-oper                                                   
   RAUG   =    1.300    factor for augmentation sphere                                              
   RDEP   =    2.641    radius for radial grids                                                     
   RDEPT  =    2.031    core radius for aug-charge                                                  
                                                                                                    
   Atomic configuration                                                                             
   11 entries                                                                                       
     n  l   j            E        occ.                                                              
     1  0  0.50    -19819.0341   2.0000                                                             
     2  0  0.50     -2799.0127   2.0000                                                             
     2  1  1.50     -2502.0276   6.0000                                                             
     3  0  0.50      -476.4449   2.0000                                                             
     3  1  1.50      -379.1496   6.0000                                                             
     3  2  2.50      -220.9367  10.0000                                                             
     4  0  0.50       -64.3378   2.0000                                                             
     5  0  0.50        -4.0862   1.0000                                                             
     4  1  1.50       -38.4773   6.0000                                                             
     4  2  2.50        -3.7535   5.0000                                                             
     4  3  2.50        -1.3606   0.0000                                                             
   Description                                                                                      
     l       E           TYP  RCUT    TYP  RCUT                                                     
     0    -64.3377829     23  2.100                                                                 
     0     -4.0861640     23  2.400                                                                 
     1    -38.4772993     23  2.100                                                                 
     1     13.6058260     23  2.100                                                                 
     2     -3.7534941     23  2.400                                                                 
     2     -5.1140767     23  2.400                                                                 
     3     -4.0817478     23  2.500                                                                 
  local pseudopotential read in
  partial core-charges read in
  partial kinetic energy density read in
  atomic valenz-charges read in
  non local Contribution for L=           0  read in
    real space projection operators read in
  non local Contribution for L=           0  read in
    real space projection operators read in
  non local Contribution for L=           1  read in
    real space projection operators read in
  non local Contribution for L=           1  read in
    real space projection operators read in
  non local Contribution for L=           2  read in
    real space projection operators read in
  non local Contribution for L=           2  read in
    real space projection operators read in
    PAW grid and wavefunctions read in
 
   number of l-projection  operators is LMAX  =           6
   number of lm-projection operators is LMMAX =          18
 
 POTCAR:    PAW_PBE Ta_pv 07Sep2000               
   SHA256 =  00d0a14a36c127416459414afb8617d9754996fffa60a2465888e660b20a452f Ta_pv/POTCAR          
   COPYR  = (c) Copyright 07Sep2000 Georg Kresse                                                    
   COPYR  = This file is part of the software VASP. Any use, copying, and all other rights are regul
   COPYR  = If you do not have a valid VASP license, you may not use, copy or distribute this file. 
   VRHFIN =Ta:  5p6s5d                                                                              
   LEXCH  = PE                                                                                      
   EATOM  =  1047.1984 eV,   76.9669 Ry                                                             
                                                                                                    
   TITEL  = PAW_PBE Ta_pv 07Sep2000                                                                 
   LULTRA =        F    use ultrasoft PP ?                                                          
   IUNSCR =        1    unscreen: 0-lin 1-nonlin 2-no                                               
   RPACOR =    2.330    partial core radius                                                         
   POMASS =  180.948; ZVAL   =   11.000    mass and valenz                                          
   RCORE  =    2.500    outmost cutoff radius                                                       
   RWIGS  =    2.840; RWIGS  =    1.503    wigner-seitz radius (au A)                               
   ENMAX  =  223.667; ENMIN  =  167.750 eV                                                          
   RCLOC  =    2.205    cutoff for local pot                                                        
   LCOR   =        T    correct aug charges                                                         
   LPAW   =        T    paw PP                                                                      
   EAUG   =  377.421                                                                                
   DEXC   =    0.000                                                                                
   RMAX   =    2.551    core radius for proj-oper                                                   
   RAUG   =    1.300    factor for augmentation sphere                                              
   RDEP   =    2.526    radius for radial grids                                                     
   RDEPT  =    2.132    core radius for aug-charge                                                  
                                                                                                    
   Atomic configuration                                                                             
   15 entries                                                                                       
     n  l   j            E        occ.                                                              
     1  0  0.50    -67341.2801   2.0000                                                             
     2  0  0.50    -11566.9369   2.0000                                                             
     2  1  1.50    -10134.1175   6.0000                                                             
     3  0  0.50     -2648.5614   2.0000                                                             
     3  1  1.50     -2222.6006   6.0000                                                             
     3  2  2.50     -1726.3114  10.0000                                                             
     4  0  0.50      -538.6957   2.0000                                                             
     4  1  1.50      -399.0125   6.0000                                                             
     4  2  2.50      -220.3955  10.0000                                                             
     4  3  3.50       -23.0371  14.0000                                                             
     5  0  0.50       -71.2900   2.0000                                                             
     5  1  1.50       -37.8224   6.0000                                                             
     5  2  2.50        -2.6455   4.0000                                                             
     6  0  0.50        -4.9623   1.0000                                                             
     5  3  2.50        -1.3606   0.0000                                                             
   Description                                                                                      
     l       E           TYP  RCUT    TYP  RCUT                                                     
     1    -37.8224449     23  2.500                                                                 
     1      1.3605826     23  2.500                                                                 
     2     -2.6454718     23  2.500                                                                 
     2     -0.6258570     23  2.500                                                                 
     0     -4.9622674     23  2.500                                                                 
     0      4.7531427     23  2.500                                                                 
  local pseudopotential read in
  partial core-charges read in
  partial kinetic energy density read in
  atomic valenz-charges read in
  non local Contribution for L=           1  read in
    real space projection operators read in
  non local Contribution for L=           1  read in
    real space projection operators read in
  non local Contribution for L=           2  read in
    real space projection operators read in
  non local Contribution for L=           2  read in
    real space projection operators read in
  non local Contribution for L=           0  read in
    real space projection operators read in
  non local Contribution for L=           0  read in
    real space projection operators read in
    PAW grid and wavefunctions read in
 
   number of l-projection  operators is LMAX  =           6
   number of lm-projection operators is LMMAX =          18
 
 POTCAR:    PAW_PBE W_sv 04Sep2015                
   SHA256 =  931c2d770f65867ef30f3db3421922900fc0890ebac5c3e12f63b6a2064023d7 W_sv/POTCAR           
   COPYR  = (c) Copyright 04Sep2015 Georg Kresse                                                    
   COPYR  = This file is part of the software VASP. Any use, copying, and all other rights are regul
   COPYR  = If you do not have a valid VASP license, you may not use, copy or distribute this file. 
   VRHFIN =W : 5p6s5d                                                                               
   LEXCH  = PE                                                                                      
   EATOM  =  1865.5791 eV,  137.1162 Ry                                                             
                                                                                                    
   TITEL  = PAW_PBE W_sv 04Sep2015                                                                  
   LULTRA =        F    use ultrasoft PP ?                                                          
   IUNSCR =        1    unscreen: 0-lin 1-nonlin 2-no                                               
   RPACOR =    2.330    partial core radius                                                         
   POMASS =  183.850; ZVAL   =   14.000    mass and valenz                                          
   RCORE  =    2.500    outmost cutoff radius                                                       
   RWIGS  =    2.750; RWIGS  =    1.455    wigner-seitz radius (au A)                               
   ENMAX  =  223.057; ENMIN  =  167.293 eV                                                          
   ICORE  =        3    local potential                                                             
   LCOR   =        T    correct aug charges                                                         
   LPAW   =        T    paw PP                                                                      
   EAUG   =  373.438                                                                                
   DEXC   =    0.000                                                                                
   RMAX   =    2.565    core radius for proj-oper                                                   
   RAUG   =    1.300    factor for augmentation sphere                                              
   RDEP   =    2.539    radius for radial grids                                                     
   RDEPT  =    2.126    core radius for aug-charge                                                  
                                                                                                    
   Atomic configuration                                                                             
   15 entries                                                                                       
     n  l   j            E        occ.                                                              
     1  0  0.50    -69465.5834   2.0000                                                             
     2  0  0.50    -11986.2640   2.0000                                                             
     2  1  1.50    -10479.8613   6.0000                                                             
     3  0  0.50     -2759.0756   2.0000                                                             
     3  1  1.50     -2313.1855   6.0000                                                             
     3  2  2.50     -1801.1183  10.0000                                                             
     4  0  0.50      -567.6789   2.0000                                                             
     4  1  1.50      -421.4692   6.0000                                                             
     4  2  2.50      -236.3471  10.0000                                                             
     4  3  3.50       -31.2665  14.0000                                                             
     5  0  0.50       -77.1084   2.0000                                                             
     6  0  0.50        -5.1438   1.0000                                                             
     5  1  1.50       -41.3856   6.0000                                                             
     5  2  2.50        -3.3185   5.0000                                                             
     5  3  2.50        -1.3606   0.0000                                                             
   Description                                                                                      
     l       E           TYP  RCUT    TYP  RCUT                                                     
     0    -77.1084470     23  2.100                                                                 
     0     -5.1437956     23  2.300                                                                 
     1    -41.3855615     23  2.500                                                                 
     1     -2.7211652     23  2.500                                                                 
     2     -3.3185025     23  2.500                                                                 
     2     -1.5965151     23  2.500                                                                 
     3     -1.3605826     23  2.500                                                                 
  local pseudopotential read in
  partial core-charges read in
  partial kinetic energy density read in
  kinetic energy density of atom read in
  atomic valenz-charges read in
  non local Contribution for L=           0  read in
    real space projection operators read in
  non local Contribution for L=           0  read in
    real space projection operators read in
  non local Contribution for L=           1  read in
    real space projection operators read in
  non local Contribution for L=           1  read in
    real space projection operators read in
  non local Contribution for L=           2  read in
    real space projection operators read in
  non local Contribution for L=           2  read in
    real space projection operators read in
    PAW grid and wavefunctions read in
 
   number of l-projection  operators is LMAX  =           6
   number of lm-projection operators is LMMAX =          18
 
  PAW_PBE Nb_sv 25May2007               :
 energy of atom  1       EATOM=-1555.1913
 kinetic energy error for atom=    0.2155 (will be added to EATOM!!)
  PAW_PBE Mo_sv 02Feb2006               :
 energy of atom  2       EATOM=-1862.2866
 kinetic energy error for atom=    0.1102 (will be added to EATOM!!)
  PAW_PBE Ta_pv 07Sep2000               :
 energy of atom  3       EATOM=-1047.1984
 kinetic energy error for atom=    0.0394 (will be added to EATOM!!)
  PAW_PBE W_sv 04Sep2015                :
 energy of atom  4       EATOM=-1865.5791
 kinetic energy error for atom=    0.0589 (will be added to EATOM!!)
 
 
 POSCAR: Nb-Mo-Ta-W alloy
  positions in direct lattice
  No initial velocities read in
 exchange correlation table for  LEXCH =        8
   RHO(1)=    0.500       N(1)  =     2000
   RHO(2)=  100.500       N(2)  =     4000
 


--------------------------------------------------------------------------------------------------------


 ion  position               nearest neighbor table
   1  0.000  0.500  0.000-   6 2.85  10 2.85  11 2.85  12 2.85  13 2.85  14 2.85  15 2.85  16 2.85

   2  0.000  0.000  0.000-   6 2.85  10 2.85  11 2.85  12 2.85  13 2.85  14 2.85  15 2.85  16 2.85
                             8 3.29   7 3.29   7 3.29   8 3.29
   3  0.500  0.000  0.500-   6 2.85  10 2.85  11 2.85  12 2.85  13 2.85  14 2.85  15 2.85  16 2.85
                             8 3.29   9 3.29   7 3.29   8 3.29   9 3.29   7 3.29
   4  0.000  0.500  0.500-   6 2.85  10 2.85  11 2.85  12 2.85  13 2.85  14 2.85  15 2.85  16 2.85
                             9 3.29   7 3.29   7 3.29   9 3.29
   5  0.500  0.500  0.000-   6 2.85  10 2.85  11 2.85  12 2.85  13 2.85  14 2.85  15 2.85  16 2.85
                             9 3.29   8 3.29   9 3.29   8 3.29
   6  0.250  0.750  0.750-   1 2.85   2 2.85   3 2.85   4 2.85   5 2.85   7 2.85   8 2.85   9 2.85
                            10 3.29  12 3.29  16 3.29  16 3.29  12 3.29  10 3.29
   7  0.000  0.000  0.500-   6 2.85  10 2.85  11 2.85  12 2.85  13 2.85  14 2.85  15 2.85  16 2.85
                             4 3.29   2 3.29   3 3.29   2 3.29   4 3.29   3 3.29
   8  0.500  0.000  0.000-   6 2.85  10 2.85  11 2.85  12 2.85  13 2.85  14 2.85  15 2.85  16 2.85
                             5 3.29   2 3.29   3 3.29   3 3.29   5 3.29   2 3.29
   9  0.500  0.500  0.500-   6 2.85  10 2.85  11 2.85  12 2.85  13 2.85  14 2.85  15 2.85  16 2.85
                             5 3.29   3 3.29   4 3.29   5 3.29   3 3.29   4 3.29
  10  0.750  0.750  0.750-   1 2.85   2 2.85   3 2.85   4 2.85   5 2.85   7 2.85   8 2.85   9 2.85
                             6 3.29  14 3.29  15 3.29  14 3.29  15 3.29   6 3.29
  11  0.250  0.250  0.250-   1 2.85   2 2.85   3 2.85   4 2.85   5 2.85   7 2.85   8 2.85   9 2.85
                            12 3.29  13 3.29  16 3.29  12 3.29  16 3.29  13 3.29
  12  0.250  0.250  0.750-   1 2.85   2 2.85   3 2.85   4 2.85   5 2.85   7 2.85   8 2.85   9 2.85
                             6 3.29  11 3.29  15 3.29  11 3.29   6 3.29  15 3.29
  13  0.750  0.250  0.250-   1 2.85   2 2.85   3 2.85   4 2.85   5 2.85   7 2.85   8 2.85   9 2.85
                            11 3.29  14 3.29  15 3.29  15 3.29  14 3.29  11 3.29
  14  0.750  0.750  0.250-   1 2.85   2 2.85   3 2.85   4 2.85   5 2.85   7 2.85   8 2.85   9 2.85
                            10 3.29  13 3.29  16 3.29  10 3.29  13 3.29  16 3.29
  15  0.750  0.250  0.750-   1 2.85   2 2.85   3 2.85   4 2.85   5 2.85   7 2.85   8 2.85   9 2.85
                            10 3.29  12 3.29  13 3.29  13 3.29  10 3.29  12 3.29
  16  0.250  0.750  0.250-   1 2.85   2 2.85   3 2.85   4 2.85   5 2.85   7 2.85   8 2.85   9 2.85
                             6 3.29  11 3.29  14 3.29   6 3.29  11 3.29  14 3.29
 
  LATTYP: Found a simple cubic cell.
 ALAT       =     6.5800000000
  
  Lattice vectors:
  
 A1 = (   6.5800000000,   0.0000000000,   0.0000000000)
 A2 = (   0.0000000000,   6.5800000000,   0.0000000000)
 A3 = (   0.0000000000,   0.0000000000,   6.5800000000)


Analysis of symmetry for initial positions (statically):
=====================================================================
 Subroutine PRICEL returns:
 Original cell was already a primitive cell.
 

 Routine SETGRP: Setting up the symmetry group for a 
 simple cubic supercell.


 Subroutine GETGRP returns: Found  1 space group operations
 (whereof  1 operations were pure point group operations)
 out of a pool of 48 trial point group operations.


The static configuration has the point symmetry C_1 .


Analysis of symmetry for dynamics (positions and initial velocities):
=====================================================================
 Subroutine PRICEL returns:
 Original cell was already a primitive cell.
 

 Routine SETGRP: Setting up the symmetry group for a 
 simple cubic supercell.


 Subroutine GETGRP returns: Found  1 space group operations
 (whereof  1 operations were pure point group operations)
 out of a pool of 48 trial point group operations.


The dynamic configuration has the point symmetry C_1 .


 Subroutine INISYM returns: Found  1 space group operations
 (whereof  1 operations are pure point group operations),
 and found     1 'primitive' translations


----------------------------------------------------------------------------------------

                                     Primitive cell                                     

  volume of cell :     284.8903

  direct lattice vectors                    reciprocal lattice vectors
     6.580000000  0.000000000  0.000000000     0.151975684  0.000000000  0.000000000
     0.000000000  6.580000000  0.000000000     0.000000000  0.151975684  0.000000000
     0.000000000  0.000000000  6.580000000     0.000000000  0.000000000  0.151975684

  length of vectors
     6.580000000  6.580000000  6.580000000     0.151975684  0.151975684  0.151975684

  position of ions in fractional coordinates (direct lattice)
     0.000000000  0.500000000  0.000000000
     0.000000000  0.000000000  0.000000000
     0.500000000  0.000000000  0.500000000
     0.000000000  0.500000000  0.500000000
     0.500000000  0.500000000  0.000000000
     0.250000000  0.750000000  0.750000000
     0.000000000  0.000000000  0.500000000
     0.500000000  0.000000000  0.000000000
     0.500000000  0.500000000  0.500000000
     0.750000000  0.750000000  0.750000000
     0.250000000  0.250000000  0.250000000
     0.250000000  0.250000000  0.750000000
     0.750000000  0.250000000  0.250000000
     0.750000000  0.750000000  0.250000000
     0.750000000  0.250000000  0.750000000
     0.250000000  0.750000000  0.250000000

  ion indices of the primitive-cell ions
   primitive index   ion index
                 1           1
                 2           2
                 3           3
                 4           4
                 5           5
                 6           6
                 7           7
                 8           8
                 9           9
                10          10
                11          11
                12          12
                13          13
                14          14
                15          15
                16          16

----------------------------------------------------------------------------------------

 
 
 KPOINTS: K-Spacing Value to Generate K-Mesh: 0.03

Automatic generation of k-mesh.
 Grid dimensions read from file:
 generate k-points for:    5    5    5

 Generating k-lattice:

  Cartesian coordinates                     Fractional coordinates (reciprocal lattice)
     0.030395137  0.000000000  0.000000000     0.200000000  0.000000000  0.000000000
     0.000000000  0.030395137  0.000000000     0.000000000  0.200000000  0.000000000
     0.000000000  0.000000000  0.030395137     0.000000000  0.000000000  0.200000000

  Length of vectors
     0.030395137  0.030395137  0.030395137

  Shift w.r.t. Gamma in fractional coordinates (k-lattice)
     0.000000000  0.000000000  0.000000000

 
 Subroutine IBZKPT returns following result:
 ===========================================
 
 Found     63 irreducible k-points:
 
 Following reciprocal coordinates:
            Coordinates               Weight
  0.000000  0.000000  0.000000      1.000000
  0.200000  0.000000  0.000000      2.000000
  0.000000  0.200000  0.000000      2.000000
  0.000000  0.000000  0.200000      2.000000
  0.400000  0.000000  0.000000      2.000000
  0.000000  0.400000  0.000000      2.000000
  0.000000  0.000000  0.400000      2.000000
  0.200000  0.200000  0.000000      2.000000
  0.000000  0.200000  0.200000      2.000000
  0.200000  0.000000  0.200000      2.000000
 -0.200000  0.200000  0.000000      2.000000
 -0.200000  0.000000  0.200000      2.000000
  0.000000 -0.200000  0.200000      2.000000
  0.400000  0.200000  0.000000      2.000000
  0.000000  0.400000  0.200000      2.000000
  0.200000  0.000000  0.400000      2.000000
 -0.200000  0.400000  0.000000      2.000000
 -0.400000  0.000000  0.200000      2.000000
  0.000000  0.200000  0.400000      2.000000
  0.000000 -0.400000  0.200000      2.000000
 -0.200000  0.000000  0.400000      2.000000
  0.400000  0.000000  0.200000      2.000000
  0.000000 -0.200000  0.400000      2.000000
  0.400000 -0.200000  0.000000      2.000000
  0.200000  0.400000  0.000000      2.000000
  0.400000  0.400000  0.000000      2.000000
  0.000000  0.400000  0.400000      2.000000
  0.400000  0.000000  0.400000      2.000000
 -0.400000  0.400000  0.000000      2.000000
 -0.400000  0.000000  0.400000      2.000000
  0.000000 -0.400000  0.400000      2.000000
  0.200000  0.200000  0.200000      2.000000
 -0.200000  0.200000  0.200000      2.000000
 -0.200000 -0.200000  0.200000      2.000000
  0.200000 -0.200000  0.200000      2.000000
  0.400000  0.200000  0.200000      2.000000
  0.200000  0.400000  0.200000      2.000000
  0.200000  0.200000  0.400000      2.000000
 -0.200000  0.400000  0.200000      2.000000
 -0.400000  0.200000  0.200000      2.000000
 -0.200000  0.200000  0.400000      2.000000
 -0.400000 -0.200000  0.200000      2.000000
 -0.200000 -0.400000  0.200000      2.000000
 -0.200000 -0.200000  0.400000      2.000000
  0.200000 -0.400000  0.200000      2.000000
  0.400000 -0.200000  0.200000      2.000000
  0.200000 -0.200000  0.400000      2.000000
  0.400000  0.400000  0.200000      2.000000
  0.200000  0.400000  0.400000      2.000000
  0.400000  0.200000  0.400000      2.000000
 -0.400000  0.400000  0.200000      2.000000
 -0.400000  0.200000  0.400000      2.000000
 -0.200000  0.400000  0.400000      2.000000
 -0.400000 -0.400000  0.200000      2.000000
 -0.200000 -0.400000  0.400000      2.000000
 -0.400000 -0.200000  0.400000      2.000000
  0.400000 -0.400000  0.200000      2.000000
  0.400000 -0.200000  0.400000      2.000000
  0.200000 -0.400000  0.400000      2.000000
  0.400000  0.400000  0.400000      2.000000
 -0.400000  0.400000  0.400000      2.000000
 -0.400000 -0.400000  0.400000      2.000000
  0.400000 -0.400000  0.400000      2.000000
 
 Following cartesian coordinates:
            Coordinates               Weight
  0.000000  0.000000  0.000000      1.000000
  0.030395  0.000000  0.000000      2.000000
  0.000000  0.030395  0.000000      2.000000
  0.000000  0.000000  0.030395      2.000000
  0.060790  0.000000  0.000000      2.000000
  0.000000  0.060790  0.000000      2.000000
  0.000000  0.000000  0.060790      2.000000
  0.030395  0.030395  0.000000      2.000000
  0.000000  0.030395  0.030395      2.000000
  0.030395  0.000000  0.030395      2.000000
 -0.030395  0.030395  0.000000      2.000000
 -0.030395  0.000000  0.030395      2.000000
  0.000000 -0.030395  0.030395      2.000000
  0.060790  0.030395  0.000000      2.000000
  0.000000  0.060790  0.030395      2.000000
  0.030395  0.000000  0.060790      2.000000
 -0.030395  0.060790  0.000000      2.000000
 -0.060790  0.000000  0.030395      2.000000
  0.000000  0.030395  0.060790      2.000000
  0.000000 -0.060790  0.030395      2.000000
 -0.030395  0.000000  0.060790      2.000000
  0.060790  0.000000  0.030395      2.000000
  0.000000 -0.030395  0.060790      2.000000
  0.060790 -0.030395  0.000000      2.000000
  0.030395  0.060790  0.000000      2.000000
  0.060790  0.060790  0.000000      2.000000
  0.000000  0.060790  0.060790      2.000000
  0.060790  0.000000  0.060790      2.000000
 -0.060790  0.060790  0.000000      2.000000
 -0.060790  0.000000  0.060790      2.000000
  0.000000 -0.060790  0.060790      2.000000
  0.030395  0.030395  0.030395      2.000000
 -0.030395  0.030395  0.030395      2.000000
 -0.030395 -0.030395  0.030395      2.000000
  0.030395 -0.030395  0.030395      2.000000
  0.060790  0.030395  0.030395      2.000000
  0.030395  0.060790  0.030395      2.000000
  0.030395  0.030395  0.060790      2.000000
 -0.030395  0.060790  0.030395      2.000000
 -0.060790  0.030395  0.030395      2.000000
 -0.030395  0.030395  0.060790      2.000000
 -0.060790 -0.030395  0.030395      2.000000
 -0.030395 -0.060790  0.030395      2.000000
 -0.030395 -0.030395  0.060790      2.000000
  0.030395 -0.060790  0.030395      2.000000
  0.060790 -0.030395  0.030395      2.000000
  0.030395 -0.030395  0.060790      2.000000
  0.060790  0.060790  0.030395      2.000000
  0.030395  0.060790  0.060790      2.000000
  0.060790  0.030395  0.060790      2.000000
 -0.060790  0.060790  0.030395      2.000000
 -0.060790  0.030395  0.060790      2.000000
 -0.030395  0.060790  0.060790      2.000000
 -0.060790 -0.060790  0.030395      2.000000
 -0.030395 -0.060790  0.060790      2.000000
 -0.060790 -0.030395  0.060790      2.000000
  0.060790 -0.060790  0.030395      2.000000
  0.060790 -0.030395  0.060790      2.000000
  0.030395 -0.060790  0.060790      2.000000
  0.060790  0.060790  0.060790      2.000000
 -0.060790  0.060790  0.060790      2.000000
 -0.060790 -0.060790  0.060790      2.000000
  0.060790 -0.060790  0.060790      2.000000
 


--------------------------------------------------------------------------------------------------------




 Dimension of arrays:
   k-points           NKPTS =     63   k-points in BZ     NKDIM =     63   number of bands    NBANDS=    128
   number of dos      NEDOS =    301   number of ions     NIONS =     16
   non local maximal  LDIM  =      6   non local SUM 2l+1 LMDIM =     18
   total plane-waves  NPLWV =  46656
   max r-space proj   IRMAX =      1   max aug-charges    IRDMAX=   9546
   dimension x,y,z NGX =    36 NGY =   36 NGZ =   36
   dimension x,y,z NGXF=    72 NGYF=   72 NGZF=   72
   support grid    NGXF=    72 NGYF=   72 NGZF=   72
   ions per type =               2   4   4   6
   NGX,Y,Z   is equivalent  to a cutoff of   9.10,  9.10,  9.10 a.u.
   NGXF,Y,Z  is equivalent  to a cutoff of  18.19, 18.19, 18.19 a.u.

 SYSTEM =  unknown system                          
 POSCAR =  Nb-Mo-Ta-W alloy                        

 Startparameter for this run:
   NWRITE =      2    write-flag & timer
   PREC   = accura    normal or accurate (medium, high low for compatibility)
   ISTART =      0    job   : 0-new  1-cont  2-samecut
   ICHARG =      2    charge: 1-file 2-atom 10-const
   ISPIN  =      1    spin polarized calculation?
   LNONCOLLINEAR =      F non collinear calculations
   LSORBIT =      F    spin-orbit coupling
   INIWAV =      1    electr: 0-lowe 1-rand  2-diag
   LASPH  =      F    aspherical Exc in radial PAW
 Electronic Relaxation 1
   ENCUT  =  250.0 eV  18.37 Ry    4.29 a.u.   8.48  8.48  8.48*2*pi/ulx,y,z
   ENINI  =  250.0     initial cutoff
   ENAUG  =  455.7 eV  augmentation charge cutoff
   NELM   =     80;   NELMIN=  2; NELMDL= -5     # of ELM steps 
   EDIFF  = 0.1E-07   stopping-criterion for ELM
   LREAL  =      F    real-space projection
   NLSPLINE    = F    spline interpolate recip. space projectors
   LCOMPAT=      F    compatible to vasp.4.4
   GGA_COMPAT  = T    GGA compatible to vasp.4.4-vasp.4.6
   LMAXPAW     = -100 max onsite density
   LMAXMIX     =    2 max onsite mixed and CHGCAR
   VOSKOWN=      0    Vosko Wilk Nusair interpolation
   ROPT   =    0.00000   0.00000   0.00000   0.00000
 Ionic relaxation
   EDIFFG = -.1E-01   stopping-criterion for IOM
   NSW    =      0    number of steps for IOM
   NBLOCK =      1;   KBLOCK =      1    inner block; outer block 
   IBRION =     -1    ionic relax: 0-MD 1-quasi-New 2-CG
   NFREE  =      0    steps in history (QN), initial steepest desc. (CG)
   ISIF   =      2    stress and relaxation
   IWAVPR =     10    prediction:  0-non 1-charg 2-wave 3-comb
   ISYM   =      2    0-nonsym 1-usesym 2-fastsym
   LCORR  =      T    Harris-Foulkes like correction to forces

   POTIM  = 0.5000    time-step for ionic-motion
   TEIN   =    0.0    initial temperature
   TEBEG  =    0.0;   TEEND  =   0.0 temperature during run
   SMASS  =  -3.00    Nose mass-parameter (am)
   estimated Nose-frequenzy (Omega)   =  0.10E-29 period in steps = 0.13E+47 mass=  -0.989E-27a.u.
   SCALEE = 1.0000    scale energy and forces
   NPACO  =    256;   APACO  = 10.0  distance and # of slots for P.C.
   PSTRESS=    0.0 pullay stress

  Mass of Ions in am
   POMASS =  92.91 95.94180.95183.85
  Ionic Valenz
   ZVAL   =  13.00 14.00 11.00 14.00
  Atomic Wigner-Seitz radii
   RWIGS  =  -1.00 -1.00 -1.00 -1.00
  virtual crystal weights 
   VCA    =   1.00  1.00  1.00  1.00
   NELECT =     210.0000    total number of electrons
   NUPDOWN=      -1.0000    fix difference up-down

 DOS related values:
   EMIN   =  10.00;   EMAX   =-10.00  energy-range for DOS
   EFERMI =   0.00
   ISMEAR =     0;   SIGMA  =   0.02  broadening in eV -4-tet -1-fermi 0-gaus

 Electronic relaxation 2 (details)
   IALGO  =     38    algorithm
   LDIAG  =      T    sub-space diagonalisation (order eigenvalues)
   LSUBROT=      F    optimize rotation matrix (better conditioning)
   TURBO    =      0    0=normal 1=particle mesh
   IRESTART =      0    0=no restart 2=restart with 2 vectors
   NREBOOT  =      0    no. of reboots
   NMIN     =      0    reboot dimension
   EREF     =   0.00    reference energy to select bands
   IMIX   =      4    mixing-type and parameters
     AMIX     =   0.40;   BMIX     =  1.00
     AMIX_MAG =   1.60;   BMIX_MAG =  1.00
     AMIN     =   0.10
     WC   =   100.;   INIMIX=   1;  MIXPRE=   1;  MAXMIX= -45

 Intra band minimization:
   WEIMIN = 0.0000     energy-eigenvalue tresh-hold
   EBREAK =  0.20E-10  absolut break condition
   DEPER  =   0.30     relativ break condition  

   TIME   =   0.40     timestep for ELM

  volume/ion in A,a.u.               =      17.81       120.16
  Fermi-wavevector in a.u.,A,eV,Ry     =   1.478843  2.794608 29.755619  2.186976
  Thomas-Fermi vector in A             =   2.593074
 
 Write flags
   LWAVE        =      F    write WAVECAR
   LDOWNSAMPLE  =      F    k-point downsampling of WAVECAR
   LCHARG       =      F    write CHGCAR
   LVTOT        =      F    write LOCPOT, total local potential
   LVHAR        =      F    write LOCPOT, Hartree potential only
   LELF         =      F    write electronic localiz. function (ELF)
   LORBIT       =      0    0 simple, 1 ext, 2 COOP (PROOUT), +10 PAW based schemes


 Dipole corrections
   LMONO  =      F    monopole corrections only (constant potential shift)
   LDIPOL =      F    correct potential (dipole corrections)
   IDIPOL =      0    1-x, 2-y, 3-z, 4-all directions 
   EPSILON=  1.0000000 bulk dielectric constant

 Core level calculations are selected ICORELEVEL =  1
 Exchange correlation treatment:
   GGA     =    PE    GGA type
   LEXCH   =     8    internal setting for exchange type
   LIBXC   =     F    Libxc                    
   VOSKOWN =     0    Vosko Wilk Nusair interpolation
   LHFCALC =     F    Hartree Fock is set to
   LHFONE  =     F    Hartree Fock one center treatment
   AEXX    =    0.0000 exact exchange contribution

 Linear response parameters
   LEPSILON=     F    determine dielectric tensor
   LRPA    =     F    only Hartree local field effects (RPA)
   LNABLA  =     F    use nabla operator in PAW spheres
   LVEL    =     F    velocity operator in full k-point grid
   CSHIFT  =0.1000    complex shift for real part using Kramers Kronig
   OMEGAMAX=  -1.0    maximum frequency
   DEG_THRESHOLD= 0.2000000E-02 threshold for treating states as degnerate
   RTIME   =   -0.100 relaxation time in fs
  (WPLASMAI=    0.000 imaginary part of plasma frequency in eV, 0.658/RTIME)
   DFIELD  = 0.0000000 0.0000000 0.0000000 field for delta impulse in time
 
  Optional k-point grid parameters
   LKPOINTS_OPT  =     F    use optional k-point grid
   KPOINTS_OPT_MODE=     1    mode for optional k-point grid
 
 Orbital magnetization related:
   ORBITALMAG=     F  switch on orbital magnetization
   LCHIMAG   =     F  perturbation theory with respect to B field
   DQ        =  0.001000  dq finite difference perturbation B field
   LLRAUG    =     F  two centre corrections for induced B field



--------------------------------------------------------------------------------------------------------


 Static calculation
 charge density and potential will be updated during run
 non-spin polarized calculation
 Variant of blocked Davidson
 Davidson routine will perform the subspace rotation
 perform sub-space diagonalisation
    after iterative eigenvector-optimisation
 modified Broyden-mixing scheme, WC =      100.0
 initial mixing is a Kerker type mixing with AMIX =  0.4000 and BMIX =      1.0000
 Hartree-type preconditioning will be used
 using additional bands           23
 reciprocal scheme for non local part
 use partial core corrections
 calculate Harris-corrections to forces 
   (improved forces if not selfconsistent)
 use gradient corrections 
 use of overlap-Matrix (Vanderbilt PP)
 Gauss-broadening in eV      SIGMA  =   0.02


--------------------------------------------------------------------------------------------------------


  energy-cutoff  :      250.00
  volume of cell :      284.89
      direct lattice vectors                 reciprocal lattice vectors
     6.580000000  0.000000000  0.000000000     0.151975684  0.000000000  0.000000000
     0.000000000  6.580000000  0.000000000     0.000000000  0.151975684  0.000000000
     0.000000000  0.000000000  6.580000000     0.000000000  0.000000000  0.151975684

  length of vectors
     6.580000000  6.580000000  6.580000000     0.151975684  0.151975684  0.151975684


 
 k-points in units of 2pi/SCALE and weight: K-Spacing Value to Generate K-Mesh: 0.03
   0.00000000  0.00000000  0.00000000       0.008
   0.03039514  0.00000000  0.00000000       0.016
   0.00000000  0.03039514  0.00000000       0.016
   0.00000000  0.00000000  0.03039514       0.016
   0.06079027  0.00000000  0.00000000       0.016
   0.00000000  0.06079027  0.00000000       0.016
   0.00000000  0.00000000  0.06079027       0.016
   0.03039514  0.03039514  0.00000000       0.016
   0.00000000  0.03039514  0.03039514       0.016
   0.03039514  0.00000000  0.03039514       0.016
  -0.03039514  0.03039514  0.00000000       0.016
  -0.03039514  0.00000000  0.03039514       0.016
   0.00000000 -0.03039514  0.03039514       0.016
   0.06079027  0.03039514  0.00000000       0.016
   0.00000000  0.06079027  0.03039514       0.016
   0.03039514  0.00000000  0.06079027       0.016
  -0.03039514  0.06079027  0.00000000       0.016
  -0.06079027  0.00000000  0.03039514       0.016
   0.00000000  0.03039514  0.06079027       0.016
   0.00000000 -0.06079027  0.03039514       0.016
  -0.03039514  0.00000000  0.06079027       0.016
   0.06079027  0.00000000  0.03039514       0.016
   0.00000000 -0.03039514  0.06079027       0.016
   0.06079027 -0.03039514  0.00000000       0.016
   0.03039514  0.06079027  0.00000000       0.016
   0.06079027  0.06079027  0.00000000       0.016
   0.00000000  0.06079027  0.06079027       0.016
   0.06079027  0.00000000  0.06079027       0.016
  -0.06079027  0.06079027  0.00000000       0.016
  -0.06079027  0.00000000  0.06079027       0.016
   0.00000000 -0.06079027  0.06079027       0.016
   0.03039514  0.03039514  0.03039514       0.016
  -0.03039514  0.03039514  0.03039514       0.016
  -0.03039514 -0.03039514  0.03039514       0.016
   0.03039514 -0.03039514  0.03039514       0.016
   0.06079027  0.03039514  0.03039514       0.016
   0.03039514  0.06079027  0.03039514       0.016
   0.03039514  0.03039514  0.06079027       0.016
  -0.03039514  0.06079027  0.03039514       0.016
  -0.06079027  0.03039514  0.03039514       0.016
  -0.03039514  0.03039514  0.06079027       0.016
  -0.06079027 -0.03039514  0.03039514       0.016
  -0.03039514 -0.06079027  0.03039514       0.016
  -0.03039514 -0.03039514  0.06079027       0.016
   0.03039514 -0.06079027  0.03039514       0.016
   0.06079027 -0.03039514  0.03039514       0.016
   0.03039514 -0.03039514  0.06079027       0.016
   0.06079027  0.06079027  0.03039514       0.016
   0.03039514  0.06079027  0.06079027       0.016
   0.06079027  0.03039514  0.06079027       0.016
  -0.06079027  0.06079027  0.03039514       0.016
  -0.06079027  0.03039514  0.06079027       0.016
  -0.03039514  0.06079027  0.06079027       0.016
  -0.06079027 -0.06079027  0.03039514       0.016
  -0.03039514 -0.06079027  0.06079027       0.016
  -0.06079027 -0.03039514  0.06079027       0.016
   0.06079027 -0.06079027  0.03039514       0.016
   0.06079027 -0.03039514  0.06079027       0.016
   0.03039514 -0.06079027  0.06079027       0.016
   0.06079027  0.06079027  0.06079027       0.016
  -0.06079027  0.06079027  0.06079027       0.016
  -0.06079027 -0.06079027  0.06079027       0.016
   0.06079027 -0.06079027  0.06079027       0.016
 
 k-points in reciprocal lattice and weights: K-Spacing Value to Generate K-Mesh: 0.03
   0.00000000  0.00000000  0.00000000       0.008
   0.20000000  0.00000000  0.00000000       0.016
   0.00000000  0.20000000  0.00000000       0.016
   0.00000000  0.00000000  0.20000000       0.016
   0.40000000  0.00000000  0.00000000       0.016
   0.00000000  0.40000000  0.00000000       0.016
   0.00000000  0.00000000  0.40000000       0.016
   0.20000000  0.20000000  0.00000000       0.016
   0.00000000  0.20000000  0.20000000       0.016
   0.20000000  0.00000000  0.20000000       0.016
  -0.20000000  0.20000000  0.00000000       0.016
  -0.20000000  0.00000000  0.20000000       0.016
   0.00000000 -0.20000000  0.20000000       0.016
   0.40000000  0.20000000  0.00000000       0.016
   0.00000000  0.40000000  0.20000000       0.016
   0.20000000  0.00000000  0.40000000       0.016
  -0.20000000  0.40000000  0.00000000       0.016
  -0.40000000  0.00000000  0.20000000       0.016
   0.00000000  0.20000000  0.40000000       0.016
   0.00000000 -0.40000000  0.20000000       0.016
  -0.20000000  0.00000000  0.40000000       0.016
   0.40000000  0.00000000  0.20000000       0.016
   0.00000000 -0.20000000  0.40000000       0.016
   0.40000000 -0.20000000  0.00000000       0.016
   0.20000000  0.40000000  0.00000000       0.016
   0.40000000  0.40000000  0.00000000       0.016
   0.00000000  0.40000000  0.40000000       0.016
   0.40000000  0.00000000  0.40000000       0.016
  -0.40000000  0.40000000  0.00000000       0.016
  -0.40000000  0.00000000  0.40000000       0.016
   0.00000000 -0.40000000  0.40000000       0.016
   0.20000000  0.20000000  0.20000000       0.016
  -0.20000000  0.20000000  0.20000000       0.016
  -0.20000000 -0.20000000  0.20000000       0.016
   0.20000000 -0.20000000  0.20000000       0.016
   0.40000000  0.20000000  0.20000000       0.016
   0.20000000  0.40000000  0.20000000       0.016
   0.20000000  0.20000000  0.40000000       0.016
  -0.20000000  0.40000000  0.20000000       0.016
  -0.40000000  0.20000000  0.20000000       0.016
  -0.20000000  0.20000000  0.40000000       0.016
  -0.40000000 -0.20000000  0.20000000       0.016
  -0.20000000 -0.40000000  0.20000000       0.016
  -0.20000000 -0.20000000  0.40000000       0.016
   0.20000000 -0.40000000  0.20000000       0.016
   0.40000000 -0.20000000  0.20000000       0.016
   0.20000000 -0.20000000  0.40000000       0.016
   0.40000000  0.40000000  0.20000000       0.016
   0.20000000  0.40000000  0.40000000       0.016
   0.40000000  0.20000000  0.40000000       0.016
  -0.40000000  0.40000000  0.20000000       0.016
  -0.40000000  0.20000000  0.40000000       0.016
  -0.20000000  0.40000000  0.40000000       0.016
  -0.40000000 -0.40000000  0.20000000       0.016
  -0.20000000 -0.40000000  0.40000000       0.016
  -0.40000000 -0.20000000  0.40000000       0.016
   0.40000000 -0.40000000  0.20000000       0.016
   0.40000000 -0.20000000  0.40000000       0.016
   0.20000000 -0.40000000  0.40000000       0.016
   0.40000000  0.40000000  0.40000000       0.016
  -0.40000000  0.40000000  0.40000000       0.016
  -0.40000000 -0.40000000  0.40000000       0.016
   0.40000000 -0.40000000  0.40000000       0.016
 
 position of ions in fractional coordinates (direct lattice) 
   0.00000000  0.50000000  0.00000000
   0.00000000  0.00000000  0.00000000
   0.50000000  0.00000000  0.50000000
   0.00000000  0.50000000  0.50000000
   0.50000000  0.50000000  0.00000000
   0.25000000  0.75000000  0.75000000
   0.00000000  0.00000000  0.50000000
   0.50000000  0.00000000  0.00000000
   0.50000000  0.50000000  0.50000000
   0.75000000  0.75000000  0.75000000
   0.25000000  0.25000000  0.25000000
   0.25000000  0.25000000  0.75000000
   0.75000000  0.25000000  0.25000000
   0.75000000  0.75000000  0.25000000
   0.75000000  0.25000000  0.75000000
   0.25000000  0.75000000  0.25000000
 
 position of ions in cartesian coordinates  (Angst):
   0.00000000  3.29000000  0.00000000
   0.00000000  0.00000000  0.00000000
   3.29000000  0.00000000  3.29000000
   0.00000000  3.29000000  3.29000000
   3.29000000  3.29000000  0.00000000
   1.64500000  4.93500000  4.93500000
   0.00000000  0.00000000  3.29000000
   3.29000000  0.00000000  0.00000000
   3.29000000  3.29000000  3.29000000
   4.93500000  4.93500000  4.93500000
   1.64500000  1.64500000  1.64500000
   1.64500000  1.64500000  4.93500000
   4.93500000  1.64500000  1.64500000
   4.93500000  4.93500000  1.64500000
   4.93500000  1.64500000  4.93500000
   1.64500000  4.93500000  1.64500000
 


--------------------------------------------------------------------------------------------------------


 k-point   1 :   0.0000 0.0000 0.0000  plane waves:    2517
 k-point   2 :   0.2000 0.0000 0.0000  plane waves:    2545
 k-point   3 :   0.0000 0.2000 0.0000  plane waves:    2545
 k-point   4 :   0.0000 0.0000 0.2000  plane waves:    2545
 k-point   5 :   0.4000 0.0000 0.0000  plane waves:    2569
 k-point   6 :   0.0000 0.4000 0.0000  plane waves:    2569
 k-point   7 :   0.0000 0.0000 0.4000  plane waves:    2569
 k-point   8 :   0.2000 0.2000 0.0000  plane waves:    2562
 k-point   9 :   0.0000 0.2000 0.2000  plane waves:    2562
 k-point  10 :   0.2000 0.0000 0.2000  plane waves:    2562
 k-point  11 :  -0.2000 0.2000 0.0000  plane waves:    2562
 k-point  12 :  -0.2000 0.0000 0.2000  plane waves:    2562
 k-point  13 :   0.0000-0.2000 0.2000  plane waves:    2562
 k-point  14 :   0.4000 0.2000 0.0000  plane waves:    2566
 k-point  15 :   0.0000 0.4000 0.2000  plane waves:    2566
 k-point  16 :   0.2000 0.0000 0.4000  plane waves:    2566
 k-point  17 :  -0.2000 0.4000 0.0000  plane waves:    2566
 k-point  18 :  -0.4000 0.0000 0.2000  plane waves:    2566
 k-point  19 :   0.0000 0.2000 0.4000  plane waves:    2566
 k-point  20 :   0.0000-0.4000 0.2000  plane waves:    2566
 k-point  21 :  -0.2000 0.0000 0.4000  plane waves:    2566
 k-point  22 :   0.4000 0.0000 0.2000  plane waves:    2566
 k-point  23 :   0.0000-0.2000 0.4000  plane waves:    2566
 k-point  24 :   0.4000-0.2000 0.0000  plane waves:    2566
 k-point  25 :   0.2000 0.4000 0.0000  plane waves:    2566
 k-point  26 :   0.4000 0.4000 0.0000  plane waves:    2570
 k-point  27 :   0.0000 0.4000 0.4000  plane waves:    2570
 k-point  28 :   0.4000 0.0000 0.4000  plane waves:    2570
 k-point  29 :  -0.4000 0.4000 0.0000  plane waves:    2570
 k-point  30 :  -0.4000 0.0000 0.4000  plane waves:    2570
 k-point  31 :   0.0000-0.4000 0.4000  plane waves:    2570
 k-point  32 :   0.2000 0.2000 0.2000  plane waves:    2572
 k-point  33 :  -0.2000 0.2000 0.2000  plane waves:    2572
 k-point  34 :  -0.2000-0.2000 0.2000  plane waves:    2572
 k-point  35 :   0.2000-0.2000 0.2000  plane waves:    2572
 k-point  36 :   0.4000 0.2000 0.2000  plane waves:    2546
 k-point  37 :   0.2000 0.4000 0.2000  plane waves:    2546
 k-point  38 :   0.2000 0.2000 0.4000  plane waves:    2546
 k-point  39 :  -0.2000 0.4000 0.2000  plane waves:    2546
 k-point  40 :  -0.4000 0.2000 0.2000  plane waves:    2546
 k-point  41 :  -0.2000 0.2000 0.4000  plane waves:    2546
 k-point  42 :  -0.4000-0.2000 0.2000  plane waves:    2546
 k-point  43 :  -0.2000-0.4000 0.2000  plane waves:    2546
 k-point  44 :  -0.2000-0.2000 0.4000  plane waves:    2546
 k-point  45 :   0.2000-0.4000 0.2000  plane waves:    2546
 k-point  46 :   0.4000-0.2000 0.2000  plane waves:    2546
 k-point  47 :   0.2000-0.2000 0.4000  plane waves:    2546
 k-point  48 :   0.4000 0.4000 0.2000  plane waves:    2549
 k-point  49 :   0.2000 0.4000 0.4000  plane waves:    2549
 k-point  50 :   0.4000 0.2000 0.4000  plane waves:    2549
 k-point  51 :  -0.4000 0.4000 0.2000  plane waves:    2549
 k-point  52 :  -0.4000 0.2000 0.4000  plane waves:    2549
 k-point  53 :  -0.2000 0.4000 0.4000  plane waves:    2549
 k-point  54 :  -0.4000-0.4000 0.2000  plane waves:    2549
 k-point  55 :  -0.2000-0.4000 0.4000  plane waves:    2549
 k-point  56 :  -0.4000-0.2000 0.4000  plane waves:    2549
 k-point  57 :   0.4000-0.4000 0.2000  plane waves:    2549
 k-point  58 :   0.4000-0.2000 0.4000  plane waves:    2549
 k-point  59 :   0.2000-0.4000 0.4000  plane waves:    2549
 k-point  60 :   0.4000 0.4000 0.4000  plane waves:    2533
 k-point  61 :  -0.4000 0.4000 0.4000  plane waves:    2533
 k-point  62 :  -0.4000-0.4000 0.4000  plane waves:    2533
 k-point  63 :   0.4000-0.4000 0.4000  plane waves:    2533

 maximum and minimum number of plane-waves per node :       235      194

 maximum number of plane-waves:      2572
 maximum index in each direction: 
   IXMAX=    8   IYMAX=    8   IZMAX=    8
   IXMIN=   -8   IYMIN=   -8   IZMIN=   -8


 parallel 3D FFT for wavefunctions:
    minimum data exchange during FFTs selected (reduces bandwidth)
 parallel 3D FFT for charge:
    minimum data exchange during FFTs selected (reduces bandwidth)


 total amount of memory used by VASP MPI-rank0    48253. kBytes
=======================================================================

   base      :      30000. kBytes
   nonl-proj :       8332. kBytes
   fftplans  :        456. kBytes
   grid      :        919. kBytes
   one-center:         31. kBytes
   wavefun   :       8515. kBytes
 
     INWAV:  cpu time      0.0000: real time      0.0000
 Broyden mixing: mesh for mixing (old mesh)
   NGX = 17   NGY = 17   NGZ = 17
  (NGX  = 72   NGY  = 72   NGZ  = 72)
  gives a total of   4913 points

 initial charge density was supplied:
 charge density of overlapping atoms calculated
 number of electron     210.0000000 magnetization 
 keeping initial charge density in first step


--------------------------------------------------------------------------------------------------------


 Maximum index for augmentation-charges          517 (set IRDMAX)


--------------------------------------------------------------------------------------------------------


 First call to EWALD:  gamma=   0.269
 Maximum number of real-space cells 3x 3x 3
 Maximum number of reciprocal cells 3x 3x 3

    FEWALD:  cpu time      0.0012: real time      0.0012


--------------------------------------- Iteration      1(   1)  ---------------------------------------


    POTLOK:  cpu time      0.0055: real time      0.0101
    SETDIJ:  cpu time      0.0024: real time      0.0025
     EDDAV:  cpu time      3.1333: real time      3.1473
       DOS:  cpu time      0.0055: real time      0.0055
    --------------------------------------------
      LOOP:  cpu time      3.1467: real time      3.1655

 eigenvalue-minimisations  : 16392
 total energy-change (2. order) : 0.2034166E+04  (-0.8201246E+04)
 number of electron     210.0000000 magnetization 
 augmentation part      210.0000000 magnetization 

 Free energy of the ion-electron system (eV)
  ---------------------------------------------------
  alpha Z        PSCENC =      1928.34137161
  Ewald energy   TEWEN  =    -22038.74346673
  -Hartree energ DENC   =     -4142.81179952
  -exchange      EXHF   =         0.00000000
  -V(xc)+E(xc)   XCENC  =       816.63488039
  PAW double counting   =     20523.44929789   -20210.29927811
  entropy T*S    EENTRO =        -0.00110338
  eigenvalues    EBANDS =      -782.81759346
  atomic energy  EATOM  =     25940.41414160
  Solvation  Ediel_sol  =         0.00000000
  ---------------------------------------------------
  free energy    TOTEN  =      2034.16645029 eV

  energy without entropy =     2034.16755367  energy(sigma->0) =     2034.16700198


--------------------------------------------------------------------------------------------------------




--------------------------------------- Iteration      1(   2)  ---------------------------------------


     EDDAV:  cpu time      3.1345: real time      3.1479
       DOS:  cpu time      0.0055: real time      0.0055
    --------------------------------------------
      LOOP:  cpu time      3.1400: real time      3.1534

 eigenvalue-minimisations  : 16680
 total energy-change (2. order) :-0.2071635E+04  (-0.2003233E+04)
 number of electron     210.0000000 magnetization 
 augmentation part      210.0000000 magnetization 

 Free energy of the ion-electron system (eV)
  ---------------------------------------------------
  alpha Z        PSCENC =      1928.34137161
  Ewald energy   TEWEN  =    -22038.74346673
  -Hartree energ DENC   =     -4142.81179952
  -exchange      EXHF   =         0.00000000
  -V(xc)+E(xc)   XCENC  =       816.63488039
  PAW double counting   =     20523.44929789   -20210.29927811
  entropy T*S    EENTRO =        -0.00267405
  eigenvalues    EBANDS =     -2854.45104427
  atomic energy  EATOM  =     25940.41414160
  Solvation  Ediel_sol  =         0.00000000
  ---------------------------------------------------
  free energy    TOTEN  =       -37.46857119 eV

  energy without entropy =      -37.46589714  energy(sigma->0) =      -37.46723417


--------------------------------------------------------------------------------------------------------




--------------------------------------- Iteration      1(   3)  ---------------------------------------


     EDDAV:  cpu time      3.9844: real time      4.0014
       DOS:  cpu time      0.0088: real time      4.9727
    --------------------------------------------
      LOOP:  cpu time      3.9933: real time      8.9741

 eigenvalue-minimisations  : 22936
 total energy-change (2. order) :-0.1536199E+03  (-0.1443016E+03)
 number of electron     210.0000000 magnetization 
 augmentation part      210.0000000 magnetization 

 Free energy of the ion-electron system (eV)
  ---------------------------------------------------
  alpha Z        PSCENC =      1928.34137161
  Ewald energy   TEWEN  =    -22038.74346673
  -Hartree energ DENC   =     -4142.81179952
  -exchange      EXHF   =         0.00000000
  -V(xc)+E(xc)   XCENC  =       816.63488039
  PAW double counting   =     20523.44929789   -20210.29927811
  entropy T*S    EENTRO =        -0.00198778
  eigenvalues    EBANDS =     -3008.07161662
  atomic energy  EATOM  =     25940.41414160
  Solvation  Ediel_sol  =         0.00000000
  ---------------------------------------------------
  free energy    TOTEN  =      -191.08845727 eV

  energy without entropy =     -191.08646949  energy(sigma->0) =     -191.08746338


--------------------------------------------------------------------------------------------------------




--------------------------------------- Iteration      1(   4)  ---------------------------------------


     EDDAV:  cpu time      4.0578: real time      4.0766
       DOS:  cpu time      0.0050: real time      0.0050
    --------------------------------------------
      LOOP:  cpu time      4.0628: real time      4.0990

 eigenvalue-minimisations  : 23128
 total energy-change (2. order) :-0.8071391E+01  (-0.7861506E+01)
 number of electron     210.0000000 magnetization 
 augmentation part      210.0000000 magnetization 

 Free energy of the ion-electron system (eV)
  ---------------------------------------------------
  alpha Z        PSCENC =      1928.34137161
  Ewald energy   TEWEN  =    -22038.74346673
  -Hartree energ DENC   =     -4142.81179952
  -exchange      EXHF   =         0.00000000
  -V(xc)+E(xc)   XCENC  =       816.63488039
  PAW double counting   =     20523.44929789   -20210.29927811
  entropy T*S    EENTRO =        -0.00206725
  eigenvalues    EBANDS =     -3016.14292850
  atomic energy  EATOM  =     25940.41414160
  Solvation  Ediel_sol  =         0.00000000
  ---------------------------------------------------
  free energy    TOTEN  =      -199.15984861 eV

  energy without entropy =     -199.15778137  energy(sigma->0) =     -199.15881499


--------------------------------------------------------------------------------------------------------




--------------------------------------- Iteration      1(   5)  ---------------------------------------


     EDDAV:  cpu time      4.2137: real time      4.2501
       DOS:  cpu time      0.0046: real time      0.0046
    CHARGE:  cpu time      0.0846: real time      0.0850
    MIXING:  cpu time      0.0002: real time      0.0002
    --------------------------------------------
      LOOP:  cpu time      4.3031: real time      4.3224

 eigenvalue-minimisations  : 24720
 total energy-change (2. order) :-0.4949264E+00  (-0.4911306E+00)
 number of electron     209.9999839 magnetization 
 augmentation part       48.9433332 magnetization 

 Broyden mixing:
  rms(total) = 0.56550E+01    rms(broyden)= 0.56539E+01
  rms(prec ) = 0.61795E+01
  weight for this iteration     100.00

 Free energy of the ion-electron system (eV)
  ---------------------------------------------------
  alpha Z        PSCENC =      1928.34137161
  Ewald energy   TEWEN  =    -22038.74346673
  -Hartree energ DENC   =     -4142.81179952
  -exchange      EXHF   =         0.00000000
  -V(xc)+E(xc)   XCENC  =       816.63488039
  PAW double counting   =     20523.44929789   -20210.29927811
  entropy T*S    EENTRO =        -0.00198745
  eigenvalues    EBANDS =     -3016.63793465
  atomic energy  EATOM  =     25940.41414160
  Solvation  Ediel_sol  =         0.00000000
  ---------------------------------------------------
  free energy    TOTEN  =      -199.65477498 eV

  energy without entropy =     -199.65278752  energy(sigma->0) =     -199.65378125


--------------------------------------------------------------------------------------------------------




--------------------------------------- Iteration      1(   6)  ---------------------------------------


    POTLOK:  cpu time      0.0052: real time      0.0054
    SETDIJ:  cpu time      0.0021: real time      0.0021
     EDDAV:  cpu time      3.4513: real time      3.4671
       DOS:  cpu time      0.0083: real time      2.8044
    CHARGE:  cpu time      0.0959: real time      0.1012
    MIXING:  cpu time      0.0003: real time      0.0003
    --------------------------------------------
      LOOP:  cpu time      3.5629: real time      6.3804

 eigenvalue-minimisations  : 19040
 total energy-change (2. order) : 0.7998430E+01  (-0.2089361E+01)
 number of electron     209.9999826 magnetization 
 augmentation part       50.7092358 magnetization 

 Broyden mixing:
  rms(total) = 0.20864E+01    rms(broyden)= 0.20862E+01
  rms(prec ) = 0.24882E+01
  weight for this iteration     100.00

 eigenvalues of (default mixing * dielectric matrix)
  average eigenvalue GAMMA=   1.4320
  1.4320

 Free energy of the ion-electron system (eV)
  ---------------------------------------------------
  alpha Z        PSCENC =      1928.34137161
  Ewald energy   TEWEN  =    -22038.74346673
  -Hartree energ DENC   =     -3907.73357810
  -exchange      EXHF   =         0.00000000
  -V(xc)+E(xc)   XCENC  =       805.19763470
  PAW double counting   =     24425.52492228   -24145.94911514
  entropy T*S    EENTRO =        -0.00071436
  eigenvalues    EBANDS =     -3198.70754133
  atomic energy  EATOM  =     25940.41414160
  Solvation  Ediel_sol  =         0.00000000
  ---------------------------------------------------
  free energy    TOTEN  =      -191.65634547 eV

  energy without entropy =     -191.65563111  energy(sigma->0) =     -191.65598829


--------------------------------------------------------------------------------------------------------




--------------------------------------- Iteration      1(   7)  ---------------------------------------


    POTLOK:  cpu time      0.0046: real time      0.0048
    SETDIJ:  cpu time      0.0017: real time      0.0017
     EDDAV:  cpu time      3.8750: real time      3.8919
       DOS:  cpu time      0.0049: real time      0.0049
    CHARGE:  cpu time      0.0844: real time      0.0847
    MIXING:  cpu time      0.0004: real time      0.0004
    --------------------------------------------
      LOOP:  cpu time      3.9710: real time      3.9885

 eigenvalue-minimisations  : 22368
 total energy-change (2. order) : 0.3885439E+00  (-0.1341185E+01)
 number of electron     209.9999836 magnetization 
 augmentation part       50.8171789 magnetization 

 Broyden mixing:
  rms(total) = 0.99075E+00    rms(broyden)= 0.99057E+00
  rms(prec ) = 0.20533E+01
  weight for this iteration     100.00

 eigenvalues of (default mixing * dielectric matrix)
  average eigenvalue GAMMA=   1.1143
  1.6048  0.6238

 Free energy of the ion-electron system (eV)
  ---------------------------------------------------
  alpha Z        PSCENC =      1928.34137161
  Ewald energy   TEWEN  =    -22038.74346673
  -Hartree energ DENC   =     -3828.94233847
  -exchange      EXHF   =         0.00000000
  -V(xc)+E(xc)   XCENC  =       800.93792215
  PAW double counting   =     26943.17139786   -26678.33989568
  entropy T*S    EENTRO =        -0.00174349
  eigenvalues    EBANDS =     -3258.10519043
  atomic energy  EATOM  =     25940.41414160
  Solvation  Ediel_sol  =         0.00000000
  ---------------------------------------------------
  free energy    TOTEN  =      -191.26780159 eV

  energy without entropy =     -191.26605810  energy(sigma->0) =     -191.26692984


--------------------------------------------------------------------------------------------------------




--------------------------------------- Iteration      1(   8)  ---------------------------------------


    POTLOK:  cpu time      0.0045: real time      0.0048
    SETDIJ:  cpu time      0.0018: real time      0.0018
     EDDAV:  cpu time      3.5563: real time      3.5715
       DOS:  cpu time      0.0082: real time      6.7479
    CHARGE:  cpu time      0.1239: real time      2.4399
    MIXING:  cpu time      0.0004: real time      0.0004
    --------------------------------------------
      LOOP:  cpu time      3.6951: real time     12.7663

 eigenvalue-minimisations  : 19912
 total energy-change (2. order) : 0.1713912E+01  (-0.5943691E+00)
 number of electron     209.9999829 magnetization 
 augmentation part       51.2064137 magnetization 

 Broyden mixing:
  rms(total) = 0.38404E+00    rms(broyden)= 0.38380E+00
  rms(prec ) = 0.53567E+00
  weight for this iteration     100.00

 eigenvalues of (default mixing * dielectric matrix)
  average eigenvalue GAMMA=   1.0904
  1.7400  1.0845  0.4466

 Free energy of the ion-electron system (eV)
  ---------------------------------------------------
  alpha Z        PSCENC =      1928.34137161
  Ewald energy   TEWEN  =    -22038.74346673
  -Hartree energ DENC   =     -3790.81379628
  -exchange      EXHF   =         0.00000000
  -V(xc)+E(xc)   XCENC  =       799.23683000
  PAW double counting   =     27716.44151297   -27457.51300249
  entropy T*S    EENTRO =        -0.00112717
  eigenvalues    EBANDS =     -3286.91635283
  atomic energy  EATOM  =     25940.41414160
  Solvation  Ediel_sol  =         0.00000000
  ---------------------------------------------------
  free energy    TOTEN  =      -189.55388933 eV

  energy without entropy =     -189.55276216  energy(sigma->0) =     -189.55332574


--------------------------------------------------------------------------------------------------------




--------------------------------------- Iteration      1(   9)  ---------------------------------------


    POTLOK:  cpu time      0.0091: real time      0.0095
    SETDIJ:  cpu time      0.0022: real time      0.0023
     EDDAV:  cpu time      3.7029: real time      3.7220
       DOS:  cpu time      0.0045: real time      0.0045
    CHARGE:  cpu time      0.0839: real time      0.0842
    MIXING:  cpu time      0.0003: real time      0.0003
    --------------------------------------------
      LOOP:  cpu time      3.8029: real time      3.8227

 eigenvalue-minimisations  : 20912
 total energy-change (2. order) : 0.8284708E-02  (-0.9221793E-01)
 number of electron     209.9999829 magnetization 
 augmentation part       51.2997587 magnetization 

 Broyden mixing:
  rms(total) = 0.27587E+00    rms(broyden)= 0.27585E+00
  rms(prec ) = 0.36515E+00
  weight for this iteration     100.00

 eigenvalues of (default mixing * dielectric matrix)
  average eigenvalue GAMMA=   1.2308
  2.1649  1.6734  0.6582  0.4266

 Free energy of the ion-electron system (eV)
  ---------------------------------------------------
  alpha Z        PSCENC =      1928.34137161
  Ewald energy   TEWEN  =    -22038.74346673
  -Hartree energ DENC   =     -3782.16072563
  -exchange      EXHF   =         0.00000000
  -V(xc)+E(xc)   XCENC  =       798.86006211
  PAW double counting   =     28062.24000747   -27804.78714918
  entropy T*S    EENTRO =        -0.00089749
  eigenvalues    EBANDS =     -3293.70894838
  atomic energy  EATOM  =     25940.41414160
  Solvation  Ediel_sol  =         0.00000000
  ---------------------------------------------------
  free energy    TOTEN  =      -189.54560462 eV

  energy without entropy =     -189.54470713  energy(sigma->0) =     -189.54515587


--------------------------------------------------------------------------------------------------------




--------------------------------------- Iteration      1(  10)  ---------------------------------------


    POTLOK:  cpu time      0.0044: real time      0.0047
    SETDIJ:  cpu time      0.0017: real time      0.0017
     EDDAV:  cpu time      3.6922: real time      3.7068
       DOS:  cpu time      0.0087: real time      8.4306
    CHARGE:  cpu time      0.1179: real time      0.1226
    MIXING:  cpu time      0.0003: real time      0.0003
    --------------------------------------------
      LOOP:  cpu time      3.8253: real time     12.2667

 eigenvalue-minimisations  : 21080
 total energy-change (2. order) : 0.1352311E-01  (-0.2629731E-01)
 number of electron     209.9999830 magnetization 
 augmentation part       51.2367642 magnetization 

 Broyden mixing:
  rms(total) = 0.13640E+00    rms(broyden)= 0.13637E+00
  rms(prec ) = 0.24915E+00
  weight for this iteration     100.00

 eigenvalues of (default mixing * dielectric matrix)
  average eigenvalue GAMMA=   1.1855
  2.5536  1.7112  0.8118  0.4532  0.3978

 Free energy of the ion-electron system (eV)
  ---------------------------------------------------
  alpha Z        PSCENC =      1928.34137161
  Ewald energy   TEWEN  =    -22038.74346673
  -Hartree energ DENC   =     -3783.34883295
  -exchange      EXHF   =         0.00000000
  -V(xc)+E(xc)   XCENC  =       798.89769277
  PAW double counting   =     28264.79941255   -28007.43819844
  entropy T*S    EENTRO =        -0.00080222
  eigenvalues    EBANDS =     -3292.45339971
  atomic energy  EATOM  =     25940.41414160
  Solvation  Ediel_sol  =         0.00000000
  ---------------------------------------------------
  free energy    TOTEN  =      -189.53208151 eV

  energy without entropy =     -189.53127929  energy(sigma->0) =     -189.53168040


--------------------------------------------------------------------------------------------------------




--------------------------------------- Iteration      1(  11)  ---------------------------------------


    POTLOK:  cpu time      0.0046: real time      0.0048
    SETDIJ:  cpu time      0.0018: real time      0.0018
     EDDAV:  cpu time      3.6479: real time      3.6669
       DOS:  cpu time      0.0047: real time      0.0047
    CHARGE:  cpu time      0.0838: real time      0.0840
    MIXING:  cpu time      0.0003: real time      0.0003
    --------------------------------------------
      LOOP:  cpu time      3.7431: real time      3.7625

 eigenvalue-minimisations  : 20696
 total energy-change (2. order) : 0.1286243E-01  (-0.9306950E-02)
 number of electron     209.9999830 magnetization 
 augmentation part       51.2227380 magnetization 

 Broyden mixing:
  rms(total) = 0.40122E-01    rms(broyden)= 0.40066E-01
  rms(prec ) = 0.10560E+00
  weight for this iteration     100.00

 eigenvalues of (default mixing * dielectric matrix)
  average eigenvalue GAMMA=   1.0790
  2.5172  1.7172  0.8673  0.5274  0.4488  0.3958

 Free energy of the ion-electron system (eV)
  ---------------------------------------------------
  alpha Z        PSCENC =      1928.34137161
  Ewald energy   TEWEN  =    -22038.74346673
  -Hartree energ DENC   =     -3784.22163973
  -exchange      EXHF   =         0.00000000
  -V(xc)+E(xc)   XCENC  =       798.94135836
  PAW double counting   =     28369.99760057   -28112.50605939
  entropy T*S    EENTRO =        -0.00066101
  eigenvalues    EBANDS =     -3291.74186436
  atomic energy  EATOM  =     25940.41414160
  Solvation  Ediel_sol  =         0.00000000
  ---------------------------------------------------
  free energy    TOTEN  =      -189.51921908 eV

  energy without entropy =     -189.51855807  energy(sigma->0) =     -189.51888857


--------------------------------------------------------------------------------------------------------




--------------------------------------- Iteration      1(  12)  ---------------------------------------


    POTLOK:  cpu time      0.0044: real time      0.0047
    SETDIJ:  cpu time      0.0017: real time      0.0017
     EDDAV:  cpu time      3.7621: real time      3.7806
       DOS:  cpu time      0.0085: real time      7.8903
[...]
     33     -25.9088      2.00000
     34     -25.8802      2.00000
     35     -25.8621      2.00000
     36     -25.8452      2.00000
     37     -25.8246      2.00000
     38     -25.8195      2.00000
     39     -25.8132      2.00000
     40     -25.6889      2.00000
     41     -25.6108      2.00000
     42     -25.6053      2.00000
     43     -25.1148      2.00000
     44     -25.0931      2.00000
     45     -24.9937      2.00000
     46     -24.8882      2.00000
     47     -24.8837      2.00000
     48     -24.8781      2.00000
     49     -24.8729      2.00000
     50     -24.8478      2.00000
     51     -24.8418      2.00000
     52     -24.7529      2.00000
     53     -24.6478      2.00000
     54     -24.6315      2.00000
     55     -21.5675      2.00000
     56     -21.5503      2.00000
     57     -21.5465      2.00000
     58     -21.5324      2.00000
     59     -21.5273      2.00000
     60     -21.4906      2.00000
     61       3.3957      2.00000
     62       3.9030      2.00000
     63       3.9466      2.00000
     64       4.3907      2.00000
     65       4.6322      2.00000
     66       4.6987      2.00000
     67       4.9791      2.00000
     68       5.5278      2.00000
     69       6.0490      2.00000
     70       6.0593      2.00000
     71       6.1138      2.00000
     72       6.1356      2.00000
     73       6.1859      2.00000
     74       6.2959      2.00000
     75       6.3573      2.00000
     76       6.3831      2.00000
     77       6.4098      2.00000
     78       6.4357      2.00000
     79       6.4737      2.00000
     80       6.5206      2.00000
     81       6.8503      2.00000
     82       6.8556      2.00000
     83       6.9383      2.00000
     84       6.9960      2.00000
     85       7.0120      2.00000
     86       7.0605      2.00000
     87       7.0739      2.00000
     88       7.1227      2.00000
     89       7.1461      2.00000
     90       7.1662      2.00000
     91       7.1905      2.00000
     92       7.2494      2.00000
     93       7.2798      2.00000
     94       7.3002      2.00000
     95       7.3252      2.00000
     96       7.3606      2.00000
     97       7.3895      2.00000
     98       7.4230      2.00000
     99       7.4451      2.00000
    100       7.4861      2.00000
    101       7.4880      2.00000
    102       7.5562      2.00000
    103       7.6043      2.00000
    104       7.6399      2.00000
    105       7.6460      2.00000
    106       7.7683      2.00000
    107       7.7957      2.00000
    108       8.0894      2.00000
    109      10.8146      0.00000
    110      10.8727      0.00000
    111      10.9751      0.00000
    112      10.9866      0.00000
    113      11.0388      0.00000
    114      11.0659      0.00000
    115      11.1706      0.00000
    116      11.2028      0.00000
    117      11.2677      0.00000
    118      11.2855      0.00000
    119      11.3396      0.00000
    120      11.4276      0.00000
    121      11.5954      0.00000
    122      11.6535      0.00000
    123      11.7226      0.00000
    124      11.7506      0.00000
    125      11.8421      0.00000
    126      11.9864      0.00000
    127      12.0181      0.00000
    128      12.1892      0.00000

 k-point    63 :       0.4000   -0.4000    0.4000
  band No.  band energies     occupation 
      1     -64.6836      2.00000
      2     -64.6800      2.00000
      3     -64.6793      2.00000
      4     -64.6646      2.00000
      5     -64.6444      2.00000
      6     -64.6429      2.00000
      7     -51.7892      2.00000
      8     -51.7543      2.00000
      9     -51.7504      2.00000
     10     -51.6001      2.00000
     11     -45.4580      2.00000
     12     -45.4353      2.00000
     13     -28.9309      2.00000
     14     -28.9289      2.00000
     15     -28.9180      2.00000
     16     -28.9162      2.00000
     17     -28.9132      2.00000
     18     -28.9066      2.00000
     19     -28.8977      2.00000
     20     -28.8882      2.00000
     21     -28.8836      2.00000
     22     -28.8755      2.00000
     23     -28.8679      2.00000
     24     -28.8634      2.00000
     25     -28.8573      2.00000
     26     -28.8567      2.00000
     27     -28.8546      2.00000
     28     -28.8503      2.00000
     29     -28.8380      2.00000
     30     -28.8336      2.00000
     31     -25.9890      2.00000
     32     -25.9795      2.00000
     33     -25.9085      2.00000
     34     -25.8809      2.00000
     35     -25.8615      2.00000
     36     -25.8451      2.00000
     37     -25.8251      2.00000
     38     -25.8192      2.00000
     39     -25.8134      2.00000
     40     -25.6892      2.00000
     41     -25.6138      2.00000
     42     -25.6038      2.00000
     43     -25.1140      2.00000
     44     -25.0905      2.00000
     45     -24.9947      2.00000
     46     -24.8888      2.00000
     47     -24.8825      2.00000
     48     -24.8769      2.00000
     49     -24.8731      2.00000
     50     -24.8496      2.00000
     51     -24.8418      2.00000
     52     -24.7544      2.00000
     53     -24.6476      2.00000
     54     -24.6313      2.00000
     55     -21.5675      2.00000
     56     -21.5503      2.00000
     57     -21.5465      2.00000
     58     -21.5324      2.00000
     59     -21.5272      2.00000
     60     -21.4906      2.00000
     61       3.3753      2.00000
     62       3.9030      2.00000
     63       4.0339      2.00000
     64       4.3018      2.00000
     65       4.6427      2.00000
     66       4.7537      2.00000
     67       4.9113      2.00000
     68       5.5448      2.00000
     69       6.0592      2.00000
     70       6.0770      2.00000
     71       6.1120      2.00000
     72       6.1473      2.00000
     73       6.1677      2.00000
     74       6.2727      2.00000
     75       6.3547      2.00000
     76       6.3925      2.00000
     77       6.4182      2.00000
     78       6.4442      2.00000
     79       6.4851      2.00000
     80       6.4987      2.00000
     81       6.8522      2.00000
     82       6.8537      2.00000
     83       6.9356      2.00000
     84       6.9992      2.00000
     85       7.0089      2.00000
     86       7.0553      2.00000
     87       7.0762      2.00000
     88       7.1274      2.00000
     89       7.1490      2.00000
     90       7.1657      2.00000
     91       7.1832      2.00000
     92       7.2434      2.00000
     93       7.2672      2.00000
     94       7.2949      2.00000
     95       7.3368      2.00000
     96       7.3723      2.00000
     97       7.3953      2.00000
     98       7.4087      2.00000
     99       7.4276      2.00000
    100       7.4930      2.00000
    101       7.5059      2.00000
    102       7.5854      2.00000
    103       7.6041      2.00000
    104       7.6231      2.00000
    105       7.6503      2.00000
    106       7.7601      2.00000
    107       7.7855      2.00000
    108       8.0975      2.00000
    109      10.8246      0.00000
    110      10.8742      0.00000
    111      10.9688      0.00000
    112      10.9832      0.00000
    113      11.0266      0.00000
    114      11.0769      0.00000
    115      11.1677      0.00000
    116      11.2163      0.00000
    117      11.2650      0.00000
    118      11.3002      0.00000
    119      11.3275      0.00000
    120      11.4231      0.00000
    121      11.5860      0.00000
    122      11.6783      0.00000
    123      11.7040      0.00000
    124      11.7340      0.00000
    125      11.8564      0.00000
    126      11.9602      0.00000
    127      12.0770      0.00000
    128      12.1149      0.00000


--------------------------------------------------------------------------------------------------------


 soft charge-density along one line, spin component           1
         0         1         2         3         4         5         6         7         8         9
 total charge-density along one line
 
 pseudopotential strength for first ion, spin component:           1
  5.843 -20.577  -0.001   0.001   0.001   0.001  -0.001  -0.003
-20.577   9.465  -0.001   0.001   0.002   0.000  -0.000  -0.000
 -0.001  -0.001  -9.907   0.000  -0.002   6.198  -0.000   0.002
  0.001   0.001   0.000  -9.912   0.002  -0.000   6.202  -0.002
  0.001   0.002  -0.002   0.002  -9.912   0.002  -0.002   6.202
  0.001   0.000   6.198  -0.000   0.002   7.813  -0.000  -0.001
 -0.001  -0.000  -0.000   6.202  -0.002  -0.000   7.811   0.001
 -0.003  -0.000   0.002  -0.002   6.202  -0.001   0.001   7.811
 -0.001  -0.001   0.001  -0.000  -0.000  -0.002   0.000   0.001
  0.000   0.000   0.001  -0.000  -0.000  -0.001   0.001   0.000
 -0.001  -0.000   0.000   0.001  -0.001  -0.000  -0.001   0.001
  0.001   0.000  -0.000   0.001   0.001   0.000  -0.002  -0.001
 -0.002  -0.001   0.001  -0.000   0.001  -0.001   0.000  -0.001
 -0.002  -0.001   0.002  -0.000  -0.001  -0.002   0.000   0.001
  0.000   0.000   0.001  -0.001  -0.000  -0.001   0.001   0.000
 -0.001  -0.000   0.000   0.001  -0.001  -0.000  -0.001   0.001
  0.002   0.001  -0.000   0.002   0.001   0.000  -0.002  -0.001
 -0.002  -0.001   0.001  -0.000   0.001  -0.001   0.000  -0.002
 total augmentation occupancy for first ion, spin component:           1
  1.995  -0.050   0.000  -0.000  -0.000   0.000  -0.000  -0.000  -0.005  -0.002  -0.001   0.005  -0.002   0.004   0.002   0.001
 -0.050   1.281   0.001  -0.001  -0.001   0.000  -0.000  -0.001  -0.015   0.002  -0.017   0.015  -0.030   0.007  -0.005   0.008
  0.000   0.001   1.996   0.000   0.000  -0.034  -0.001  -0.000  -0.001  -0.005  -0.000   0.003  -0.000   0.001   0.003   0.000
 -0.000  -0.001   0.000   1.996  -0.000  -0.001  -0.033   0.000   0.003   0.005  -0.000  -0.002   0.000  -0.002  -0.003   0.000
 -0.000  -0.001   0.000  -0.000   1.996  -0.000   0.000  -0.033   0.005   0.004  -0.001  -0.005   0.002  -0.003  -0.002   0.001
  0.000   0.000  -0.034  -0.001  -0.000   0.074   0.001   0.000  -0.004   0.006  -0.001  -0.001  -0.003   0.002  -0.004   0.000
 -0.000  -0.000  -0.001  -0.033   0.000   0.001   0.070  -0.000  -0.001  -0.006  -0.003  -0.003  -0.000   0.001   0.004   0.001
 -0.000  -0.001  -0.000   0.000  -0.033   0.000  -0.000   0.070  -0.006  -0.001   0.003   0.006  -0.005   0.003   0.001  -0.001
 -0.005  -0.015  -0.001   0.003   0.005  -0.004  -0.001  -0.006   3.419   0.031   0.033   0.033   0.002  -1.457  -0.012  -0.015
 -0.002   0.002  -0.005   0.005   0.004   0.006  -0.006  -0.001   0.031   3.419  -0.005  -0.035   0.012  -0.012  -1.456   0.001
 -0.001  -0.017  -0.000  -0.000  -0.001  -0.001  -0.003   0.003   0.033  -0.005   2.525   0.017   0.038  -0.015   0.001  -1.145
  0.005   0.015   0.003  -0.002  -0.005  -0.001  -0.003   0.006   0.033  -0.035   0.017   3.424   0.029  -0.022   0.013  -0.008
 -0.002  -0.030  -0.000   0.000   0.002  -0.003  -0.000  -0.005   0.002   0.012   0.038   0.029   2.570  -0.001  -0.003  -0.016
  0.004   0.007   0.001  -0.002  -0.003   0.002   0.001   0.003  -1.457  -0.012  -0.015  -0.022  -0.001   0.633   0.005   0.007
  0.002  -0.005   0.003  -0.003  -0.002  -0.004   0.004   0.001  -0.012  -1.456   0.001   0.013  -0.003   0.005   0.632  -0.000
  0.001   0.008   0.000   0.000   0.001   0.000   0.001  -0.001  -0.015   0.001  -1.145  -0.008  -0.016   0.007  -0.000   0.525
 -0.004  -0.007  -0.002   0.001   0.003   0.001   0.002  -0.003  -0.022   0.013  -0.007  -1.455  -0.013   0.012  -0.005   0.003
  0.002   0.013   0.000  -0.000  -0.001   0.001   0.000   0.002  -0.001  -0.003  -0.016  -0.013  -1.164   0.000   0.001   0.007


------------------------ aborting loop because EDIFF is reached ----------------------------------------


    CHARGE:  cpu time      0.0868: real time      0.0871
    FORLOC:  cpu time      0.0005: real time      0.0005
    FORNL :  cpu time      0.7971: real time      0.8028
    STRESS:  cpu time      1.0065: real time      1.0103
    FORCOR:  cpu time      0.0067: real time      0.0068
    FORHAR:  cpu time      0.0014: real time      0.0015
    MIXING:  cpu time      0.0006: real time      0.0007
    OFIELD:  cpu time      0.0000: real time      0.0000

  FORCE on cell =-STRESS in cart. coord.  units (eV):
  Direction    XX          YY          ZZ          XY          YZ          ZX
  --------------------------------------------------------------------------------------
  Alpha Z  1928.34137  1928.34137  1928.34137
  Ewald   -7341.79799 -7355.21737 -7341.79799     9.48457     9.48457    -3.16152
  Hartree  1264.52300  1253.03169  1266.50657     9.18313     8.28002    -3.04054
  E(xc)    -968.15487  -968.13574  -968.15721    -0.02656    -0.00557     0.00534
  Local    1706.55592  1731.21392  1704.37721   -17.91243   -17.21578     6.37127
  n-local  -334.40200  -335.38676  -334.26608    -0.29689    -0.16343    -0.37813
  augment   654.91409   655.08152   655.00334    -0.09992    -0.12739    -0.03680
  Kinetic  3060.37125  3061.34750  3060.24709    -0.08169    -0.15444     0.33606
  Fock        0.00000     0.00000     0.00000     0.00000     0.00000     0.00000
  -------------------------------------------------------------------------------------
  Total     -29.64923   -29.72387   -29.74570     0.25022     0.09798     0.09568
  in kB    -166.74252  -167.16230  -167.28504     1.40719     0.55104     0.53806
  external pressure =     -167.06 kB  Pullay stress =        0.00 kB


 VOLUME and BASIS-vectors are now :
 -----------------------------------------------------------------------------
  energy-cutoff  :      250.00
  volume of cell :      284.89
      direct lattice vectors                 reciprocal lattice vectors
     6.580000000  0.000000000  0.000000000     0.151975684  0.000000000  0.000000000
     0.000000000  6.580000000  0.000000000     0.000000000  0.151975684  0.000000000
     0.000000000  0.000000000  6.580000000     0.000000000  0.000000000  0.151975684

  length of vectors
     6.580000000  6.580000000  6.580000000     0.151975684  0.151975684  0.151975684


 FORCES acting on ions
    electron-ion (+dipol)            ewald-force                    non-local-force                 convergence-correction
 -----------------------------------------------------------------------------------------------
   0.309E+02 -.309E+02 0.309E+02   -.306E+02 0.306E+02 -.306E+02   -.267E-01 0.883E-01 -.978E-01   0.524E-04 -.155E-04 0.418E-04
   0.308E+02 0.309E+02 0.309E+02   -.306E+02 -.306E+02 -.306E+02   0.336E-01 -.554E-01 -.634E-01   0.522E-04 0.109E-04 0.428E-04
   -.330E+02 0.331E+02 -.331E+02   0.329E+02 -.329E+02 0.329E+02   -.646E-01 -.671E-02 0.669E-02   -.322E-04 -.222E-04 -.294E-04
   0.330E+02 -.331E+02 -.331E+02   -.329E+02 0.329E+02 0.329E+02   0.709E-01 0.120E-01 0.337E-03   0.360E-04 0.364E-05 -.409E-04
   -.330E+02 -.331E+02 0.331E+02   0.329E+02 0.329E+02 -.329E+02   -.609E-01 0.143E-01 -.139E-01   -.489E-04 0.207E-05 0.254E-04
   -.109E+02 -.330E+02 0.109E+02   0.110E+02 0.329E+02 -.110E+02   0.346E-01 -.602E-01 -.168E-01   0.349E-04 -.359E-04 0.112E-03
   0.262E+02 0.262E+02 -.262E+02   -.259E+02 -.259E+02 0.259E+02   -.270E-01 -.655E-01 0.567E-01   0.410E-04 0.111E-05 -.406E-04
   -.262E+02 0.262E+02 0.262E+02   0.259E+02 -.259E+02 -.259E+02   0.116E-01 -.638E-01 -.587E-01   -.491E-04 0.139E-05 0.278E-04
   -.262E+02 -.262E+02 -.262E+02   0.259E+02 0.259E+02 0.259E+02   0.255E-01 0.634E-01 0.664E-01   -.651E-04 -.769E-05 -.412E-04
   0.841E+01 -.261E+02 0.841E+01   -.863E+01 0.259E+02 -.863E+01   -.305E-02 -.455E-01 0.536E-02   -.237E-04 -.466E-04 0.789E-04
   -.109E+02 0.331E+02 -.109E+02   0.110E+02 -.329E+02 0.110E+02   0.694E-01 0.528E-01 0.724E-01   -.554E-05 0.203E-04 -.132E-03
   -.108E+02 0.332E+02 0.108E+02   0.110E+02 -.329E+02 -.110E+02   0.504E-01 0.334E-01 -.547E-01   0.137E-04 0.363E-04 0.129E-03
   0.109E+02 0.331E+02 -.109E+02   -.110E+02 -.329E+02 0.110E+02   -.617E-01 0.383E-01 0.576E-01   0.489E-06 0.213E-04 -.115E-03
   0.109E+02 -.331E+02 -.109E+02   -.110E+02 0.329E+02 0.110E+02   -.733E-01 -.550E-01 0.912E-01   -.104E-04 -.237E-04 -.102E-03
   0.109E+02 0.331E+02 0.109E+02   -.110E+02 -.329E+02 -.110E+02   -.742E-01 0.776E-01 -.689E-01   -.101E-04 0.325E-04 0.118E-03
   -.108E+02 -.331E+02 -.108E+02   0.110E+02 0.329E+02 0.110E+02   0.522E-01 -.451E-01 0.624E-01   0.131E-04 -.350E-04 -.115E-03
 -----------------------------------------------------------------------------------------------
   0.432E-01 0.170E-01 -.450E-01   -.213E-13 -.639E-13 0.338E-13   -.432E-01 -.169E-01 0.451E-01   -.118E-05 -.571E-04 -.391E-04
 
 
 POSITION                                       TOTAL-FORCE (eV/Angst)
 -----------------------------------------------------------------------------------
      0.00000      3.29000      0.00000         0.255245     -0.190518      0.176445
      0.00000      0.00000      0.00000         0.245615      0.207053      0.200094
      3.29000      0.00000      3.29000        -0.142568      0.157233     -0.174310
      0.00000      3.29000      3.29000         0.134314     -0.186183     -0.192503
      3.29000      3.29000      0.00000        -0.162745     -0.185482      0.171844
      1.64500      4.93500      4.93500         0.143339     -0.154457     -0.133474
      0.00000      0.00000      3.29000         0.291615      0.204338     -0.216509
      3.29000      0.00000      0.00000        -0.289686      0.207262      0.217817
      3.29000      3.29000      3.29000        -0.328686     -0.242531     -0.234289
      4.93500      4.93500      4.93500        -0.220733     -0.304112     -0.216268
      1.64500      1.64500      1.64500         0.195403      0.226509      0.195096
      1.64500      1.64500      4.93500         0.195072      0.237212     -0.187440
      4.93500      1.64500      1.64500        -0.174422      0.217500      0.180592
      4.93500      4.93500      1.64500        -0.168780     -0.182136      0.180444
      4.93500      1.64500      4.93500        -0.172575      0.199958     -0.171104
      1.64500      4.93500      1.64500         0.199591     -0.211646      0.203566
 -----------------------------------------------------------------------------------
    total drift:                               -0.000008     -0.000004      0.000001


--------------------------------------------------------------------------------------------------------



  FREE ENERGIE OF THE ION-ELECTRON SYSTEM (eV)
  ---------------------------------------------------
  free  energy   TOTEN  =      -189.51501554 eV

  energy  without entropy=     -189.51431986  energy(sigma->0) =     -189.51466770
 


--------------------------------------------------------------------------------------------------------


    POTLOK:  cpu time      0.0062: real time      0.0095


--------------------------------------------------------------------------------------------------------


     LOOP+:  cpu time     88.7773: real time    172.6383
    4ORBIT:  cpu time      0.0000: real time      0.0000

 total amount of memory used by VASP MPI-rank0    48253. kBytes
=======================================================================

   base      :      30000. kBytes
   nonl-proj :       8332. kBytes
   fftplans  :        456. kBytes
   grid      :        919. kBytes
   one-center:         31. kBytes
   wavefun   :       8515. kBytes
 
  
  
 General timing and accounting informations for this job:
 ========================================================
  
                  Total CPU time used (sec):       92.551
                            User time (sec):       91.280
                          System time (sec):        1.271
                         Elapsed time (sec):      184.166
  
                   Maximum memory used (kb):       90564.
                   Average memory used (kb):          N/A
  
                          Minor page faults:        10878
                          Major page faults:            0
                 Voluntary context switches:          254
