 vasp.6.3.1 04May22 (build Jul 26 2022 04:02:40) complex                        
  
 executed on             LinuxIFC date 2023.11.30  03:21:42
 running on   48 total cores
 distrk:  each k-point on   48 cores,    1 groups
 distr:  one band on NCORE=  12 cores,    4 groups


--------------------------------------------------------------------------------------------------------


 INCAR:
   ISTART = 0
   NWRITE = 2
   PREC = Accurate
   ENCUT = 250
   GGA = PE
   NSW = 0
   ISIF = 2
   ISYM = 2
   NBLOCK = 1
   KBLOCK = 1
   IBRION = -1
   NELM = 80
   EDIFF = 1E-08
   EDIFFG = -0.01
   ALGO = Normal
   LDIAG = .TRUE.
   LREAL = .FALSE.
   ISMEAR = 0
   SIGMA = 0.02
   ICHARG = 2
   LPLANE = .TRUE.
   NPAR = 4
   LSCALU = .FALSE.
   NSIM = 4
   LWAVE = .FALSE.
   LCHARG = .FALSE.
   ICORELEVEL = 1

 POTCAR:    PAW_PBE Nb_sv 25May2007               
 POTCAR:    PAW_PBE Mo_sv 02Feb2006               
 POTCAR:    PAW_PBE Ta_pv 07Sep2000               
 POTCAR:    PAW_PBE W_sv 04Sep2015                
 POTCAR:    PAW_PBE Nb_sv 25May2007               
   SHA256 =  0e8fc07c9fcd1164cf2ade22d0399fd28f85e91cd773dfa6cf24839a48c95e24 Nb_sv/POTCAR          
   COPYR  = (c) Copyright 25May2007 Georg Kresse                                                    
   COPYR  = This file is part of the software VASP. Any use, copying, and all other rights are regul
   COPYR  = If you do not have a valid VASP license, you may not use, copy or distribute this file. 
   VRHFIN =Nb: 4p5s4d                                                                               
   LEXCH  = PE                                                                                      
   EATOM  =  1555.1913 eV,  114.3033 Ry                                                             
                                                                                                    
   TITEL  = PAW_PBE Nb_sv 25May2007                                                                 
   LULTRA =        F    use ultrasoft PP ?                                                          
   IUNSCR =        1    unscreen: 0-lin 1-nonlin 2-no                                               
   RPACOR =    1.800    partial core radius                                                         
   POMASS =   92.910; ZVAL   =   13.000    mass and valenz                                          
   RCORE  =    2.400    outmost cutoff radius                                                       
   RWIGS  =    2.400; RWIGS  =    1.270    wigner-seitz radius (au A)                               
   ENMAX  =  293.235; ENMIN  =  219.927 eV                                                          
   ICORE  =        3    local potential                                                             
   LCOR   =        T    correct aug charges                                                         
   LPAW   =        T    paw PP                                                                      
   EAUG   =  455.659                                                                                
   DEXC   =    0.000                                                                                
   RMAX   =    2.456    core radius for proj-oper                                                   
   RAUG   =    1.300    factor for augmentation sphere                                              
   RDEP   =    2.451    radius for radial grids                                                     
   RDEPT  =    1.956    core radius for aug-charge                                                  
                                                                                                    
   Atomic configuration                                                                             
   11 entries                                                                                       
     n  l   j            E        occ.                                                              
     1  0  0.50    -18805.2457   2.0000                                                             
     2  0  0.50     -2630.2869   2.0000                                                             
     2  1  1.50     -2348.4046   6.0000                                                             
     3  0  0.50      -438.8757   2.0000                                                             
     3  1  1.50      -346.7588   6.0000                                                             
     3  2  2.50      -196.2560  10.0000                                                             
     4  0  0.50       -58.3859   2.0000                                                             
     5  0  0.50        -3.9816   1.0000                                                             
     4  1  1.50       -34.5141   6.0000                                                             
     4  2  2.50        -3.0408   4.0000                                                             
     4  3  2.50        -1.3606   0.0000                                                             
   Description                                                                                      
     l       E           TYP  RCUT    TYP  RCUT                                                     
     0    -58.3859094     23  2.200                                                                 
     0     -3.9816262     23  2.200                                                                 
     1    -34.5140738     23  2.200                                                                 
     1     13.6058260     23  2.200                                                                 
     2     -3.0408010     23  2.200                                                                 
     2     -0.1283038     23  2.200                                                                 
     3     -1.3605826     23  2.400                                                                 
  local pseudopotential read in
  partial core-charges read in
  partial kinetic energy density read in
  atomic valenz-charges read in
  non local Contribution for L=           0  read in
    real space projection operators read in
  non local Contribution for L=           0  read in
    real space projection operators read in
  non local Contribution for L=           1  read in
    real space projection operators read in
  non local Contribution for L=           1  read in
    real space projection operators read in
  non local Contribution for L=           2  read in
    real space projection operators read in
  non local Contribution for L=           2  read in
    real space projection operators read in
    PAW grid and wavefunctions read in
 
   number of l-projection  operators is LMAX  =           6
   number of lm-projection operators is LMMAX =          18
 
 POTCAR:    PAW_PBE Mo_sv 02Feb2006               
   SHA256 =  2731df97e41766cc617548c5a8267718fdef1f509ac6bafa01e745abea2bdfaa Mo_sv/POTCAR          
   COPYR  = (c) Copyright 02Feb2006 Georg Kresse                                                    
   COPYR  = This file is part of the software VASP. Any use, copying, and all other rights are regul
   COPYR  = If you do not have a valid VASP license, you may not use, copy or distribute this file. 
   VRHFIN =Mo: 4p5s4d                                                                               
   LEXCH  = PE                                                                                      
   EATOM  =  1862.2866 eV,  136.8742 Ry                                                             
                                                                                                    
   TITEL  = PAW_PBE Mo_sv 02Feb2006                                                                 
   LULTRA =        F    use ultrasoft PP ?                                                          
   IUNSCR =        1    unscreen: 0-lin 1-nonlin 2-no                                               
   RPACOR =    2.200    partial core radius                                                         
   POMASS =   95.940; ZVAL   =   14.000    mass and valenz                                          
   RCORE  =    2.500    outmost cutoff radius                                                       
   RWIGS  =    2.750; RWIGS  =    1.455    wigner-seitz radius (au A)                               
   ENMAX  =  242.676; ENMIN  =  182.007 eV                                                          
   ICORE  =        3    local potential                                                             
   LCOR   =        T    correct aug charges                                                         
   LPAW   =        T    paw PP                                                                      
   EAUG   =  446.014                                                                                
   DEXC   =    0.000                                                                                
   RMAX   =    2.563    core radius for proj-oper                                                   
   RAUG   =    1.300    factor for augmentation sphere                                              
   RDEP   =    2.641    radius for radial grids                                                     
   RDEPT  =    2.031    core radius for aug-charge                                                  
                                                                                                    
   Atomic configuration                                                                             
   11 entries                                                                                       
     n  l   j            E        occ.                                                              
     1  0  0.50    -19819.0341   2.0000                                                             
     2  0  0.50     -2799.0127   2.0000                                                             
     2  1  1.50     -2502.0276   6.0000                                                             
     3  0  0.50      -476.4449   2.0000                                                             
     3  1  1.50      -379.1496   6.0000                                                             
     3  2  2.50      -220.9367  10.0000                                                             
     4  0  0.50       -64.3378   2.0000                                                             
     5  0  0.50        -4.0862   1.0000                                                             
     4  1  1.50       -38.4773   6.0000                                                             
     4  2  2.50        -3.7535   5.0000                                                             
     4  3  2.50        -1.3606   0.0000                                                             
   Description                                                                                      
     l       E           TYP  RCUT    TYP  RCUT                                                     
     0    -64.3377829     23  2.100                                                                 
     0     -4.0861640     23  2.400                                                                 
     1    -38.4772993     23  2.100                                                                 
     1     13.6058260     23  2.100                                                                 
     2     -3.7534941     23  2.400                                                                 
     2     -5.1140767     23  2.400                                                                 
     3     -4.0817478     23  2.500                                                                 
  local pseudopotential read in
  partial core-charges read in
  partial kinetic energy density read in
  atomic valenz-charges read in
  non local Contribution for L=           0  read in
    real space projection operators read in
  non local Contribution for L=           0  read in
    real space projection operators read in
  non local Contribution for L=           1  read in
    real space projection operators read in
  non local Contribution for L=           1  read in
    real space projection operators read in
  non local Contribution for L=           2  read in
    real space projection operators read in
  non local Contribution for L=           2  read in
    real space projection operators read in
    PAW grid and wavefunctions read in
 
   number of l-projection  operators is LMAX  =           6
   number of lm-projection operators is LMMAX =          18
 
 POTCAR:    PAW_PBE Ta_pv 07Sep2000               
   SHA256 =  00d0a14a36c127416459414afb8617d9754996fffa60a2465888e660b20a452f Ta_pv/POTCAR          
   COPYR  = (c) Copyright 07Sep2000 Georg Kresse                                                    
   COPYR  = This file is part of the software VASP. Any use, copying, and all other rights are regul
   COPYR  = If you do not have a valid VASP license, you may not use, copy or distribute this file. 
   VRHFIN =Ta:  5p6s5d                                                                              
   LEXCH  = PE                                                                                      
   EATOM  =  1047.1984 eV,   76.9669 Ry                                                             
                                                                                                    
   TITEL  = PAW_PBE Ta_pv 07Sep2000                                                                 
   LULTRA =        F    use ultrasoft PP ?                                                          
   IUNSCR =        1    unscreen: 0-lin 1-nonlin 2-no                                               
   RPACOR =    2.330    partial core radius                                                         
   POMASS =  180.948; ZVAL   =   11.000    mass and valenz                                          
   RCORE  =    2.500    outmost cutoff radius                                                       
   RWIGS  =    2.840; RWIGS  =    1.503    wigner-seitz radius (au A)                               
   ENMAX  =  223.667; ENMIN  =  167.750 eV                                                          
   RCLOC  =    2.205    cutoff for local pot                                                        
   LCOR   =        T    correct aug charges                                                         
   LPAW   =        T    paw PP                                                                      
   EAUG   =  377.421                                                                                
   DEXC   =    0.000                                                                                
   RMAX   =    2.551    core radius for proj-oper                                                   
   RAUG   =    1.300    factor for augmentation sphere                                              
   RDEP   =    2.526    radius for radial grids                                                     
   RDEPT  =    2.132    core radius for aug-charge                                                  
                                                                                                    
   Atomic configuration                                                                             
   15 entries                                                                                       
     n  l   j            E        occ.                                                              
     1  0  0.50    -67341.2801   2.0000                                                             
     2  0  0.50    -11566.9369   2.0000                                                             
     2  1  1.50    -10134.1175   6.0000                                                             
     3  0  0.50     -2648.5614   2.0000                                                             
     3  1  1.50     -2222.6006   6.0000                                                             
     3  2  2.50     -1726.3114  10.0000                                                             
     4  0  0.50      -538.6957   2.0000                                                             
     4  1  1.50      -399.0125   6.0000                                                             
     4  2  2.50      -220.3955  10.0000                                                             
     4  3  3.50       -23.0371  14.0000                                                             
     5  0  0.50       -71.2900   2.0000                                                             
     5  1  1.50       -37.8224   6.0000                                                             
     5  2  2.50        -2.6455   4.0000                                                             
     6  0  0.50        -4.9623   1.0000                                                             
     5  3  2.50        -1.3606   0.0000                                                             
   Description                                                                                      
     l       E           TYP  RCUT    TYP  RCUT                                                     
     1    -37.8224449     23  2.500                                                                 
     1      1.3605826     23  2.500                                                                 
     2     -2.6454718     23  2.500                                                                 
     2     -0.6258570     23  2.500                                                                 
     0     -4.9622674     23  2.500                                                                 
     0      4.7531427     23  2.500                                                                 
  local pseudopotential read in
  partial core-charges read in
  partial kinetic energy density read in
  atomic valenz-charges read in
  non local Contribution for L=           1  read in
    real space projection operators read in
  non local Contribution for L=           1  read in
    real space projection operators read in
  non local Contribution for L=           2  read in
    real space projection operators read in
  non local Contribution for L=           2  read in
    real space projection operators read in
  non local Contribution for L=           0  read in
    real space projection operators read in
  non local Contribution for L=           0  read in
    real space projection operators read in
    PAW grid and wavefunctions read in
 
   number of l-projection  operators is LMAX  =           6
   number of lm-projection operators is LMMAX =          18
 
 POTCAR:    PAW_PBE W_sv 04Sep2015                
   SHA256 =  931c2d770f65867ef30f3db3421922900fc0890ebac5c3e12f63b6a2064023d7 W_sv/POTCAR           
   COPYR  = (c) Copyright 04Sep2015 Georg Kresse                                                    
   COPYR  = This file is part of the software VASP. Any use, copying, and all other rights are regul
   COPYR  = If you do not have a valid VASP license, you may not use, copy or distribute this file. 
   VRHFIN =W : 5p6s5d                                                                               
   LEXCH  = PE                                                                                      
   EATOM  =  1865.5791 eV,  137.1162 Ry                                                             
                                                                                                    
   TITEL  = PAW_PBE W_sv 04Sep2015                                                                  
   LULTRA =        F    use ultrasoft PP ?                                                          
   IUNSCR =        1    unscreen: 0-lin 1-nonlin 2-no                                               
   RPACOR =    2.330    partial core radius                                                         
   POMASS =  183.850; ZVAL   =   14.000    mass and valenz                                          
   RCORE  =    2.500    outmost cutoff radius                                                       
   RWIGS  =    2.750; RWIGS  =    1.455    wigner-seitz radius (au A)                               
   ENMAX  =  223.057; ENMIN  =  167.293 eV                                                          
   ICORE  =        3    local potential                                                             
   LCOR   =        T    correct aug charges                                                         
   LPAW   =        T    paw PP                                                                      
   EAUG   =  373.438                                                                                
   DEXC   =    0.000                                                                                
   RMAX   =    2.565    core radius for proj-oper                                                   
   RAUG   =    1.300    factor for augmentation sphere                                              
   RDEP   =    2.539    radius for radial grids                                                     
   RDEPT  =    2.126    core radius for aug-charge                                                  
                                                                                                    
   Atomic configuration                                                                             
   15 entries                                                                                       
     n  l   j            E        occ.                                                              
     1  0  0.50    -69465.5834   2.0000                                                             
     2  0  0.50    -11986.2640   2.0000                                                             
     2  1  1.50    -10479.8613   6.0000                                                             
     3  0  0.50     -2759.0756   2.0000                                                             
     3  1  1.50     -2313.1855   6.0000                                                             
     3  2  2.50     -1801.1183  10.0000                                                             
     4  0  0.50      -567.6789   2.0000                                                             
     4  1  1.50      -421.4692   6.0000                                                             
     4  2  2.50      -236.3471  10.0000                                                             
     4  3  3.50       -31.2665  14.0000                                                             
     5  0  0.50       -77.1084   2.0000                                                             
     6  0  0.50        -5.1438   1.0000                                                             
     5  1  1.50       -41.3856   6.0000                                                             
     5  2  2.50        -3.3185   5.0000                                                             
     5  3  2.50        -1.3606   0.0000                                                             
   Description                                                                                      
     l       E           TYP  RCUT    TYP  RCUT                                                     
     0    -77.1084470     23  2.100                                                                 
     0     -5.1437956     23  2.300                                                                 
     1    -41.3855615     23  2.500                                                                 
     1     -2.7211652     23  2.500                                                                 
     2     -3.3185025     23  2.500                                                                 
     2     -1.5965151     23  2.500                                                                 
     3     -1.3605826     23  2.500                                                                 
  local pseudopotential read in
  partial core-charges read in
  partial kinetic energy density read in
  kinetic energy density of atom read in
  atomic valenz-charges read in
  non local Contribution for L=           0  read in
    real space projection operators read in
  non local Contribution for L=           0  read in
    real space projection operators read in
  non local Contribution for L=           1  read in
    real space projection operators read in
  non local Contribution for L=           1  read in
    real space projection operators read in
  non local Contribution for L=           2  read in
    real space projection operators read in
  non local Contribution for L=           2  read in
    real space projection operators read in
    PAW grid and wavefunctions read in
 
   number of l-projection  operators is LMAX  =           6
   number of lm-projection operators is LMMAX =          18
 
  PAW_PBE Nb_sv 25May2007               :
 energy of atom  1       EATOM=-1555.1913
 kinetic energy error for atom=    0.2155 (will be added to EATOM!!)
  PAW_PBE Mo_sv 02Feb2006               :
 energy of atom  2       EATOM=-1862.2866
 kinetic energy error for atom=    0.1102 (will be added to EATOM!!)
  PAW_PBE Ta_pv 07Sep2000               :
 energy of atom  3       EATOM=-1047.1984
 kinetic energy error for atom=    0.0394 (will be added to EATOM!!)
  PAW_PBE W_sv 04Sep2015                :
 energy of atom  4       EATOM=-1865.5791
 kinetic energy error for atom=    0.0589 (will be added to EATOM!!)
 
 
 POSCAR: Nb-Mo-Ta-W alloy
  positions in direct lattice
  No initial velocities read in
 exchange correlation table for  LEXCH =        8
   RHO(1)=    0.500       N(1)  =     2000
   RHO(2)=  100.500       N(2)  =     4000
 


--------------------------------------------------------------------------------------------------------


 ion  position               nearest neighbor table
   1  0.250  0.250  0.250-   4 2.85   5 2.85   6 2.85   9 2.85  11 2.85  12 2.85  14 2.85  15 2.85
                             8 3.29   8 3.29
   2  0.750  0.750  0.750-   4 2.85   5 2.85   6 2.85   9 2.85  11 2.85  12 2.85  14 2.85  15 2.85
                             7 3.29   7 3.29
   3  0.750  0.250  0.750-   4 2.85   5 2.85   6 2.85   9 2.85  11 2.85  12 2.85  14 2.85  15 2.85
                             8 3.29  16 3.29   8 3.29  16 3.29
   4  0.500  0.500  0.000-   1 2.85   2 2.85   3 2.85   7 2.85   8 2.85  10 2.85  13 2.85  16 2.85
                            12 3.29   9 3.29   5 3.29  12 3.29   5 3.29   9 3.29
   5  0.500  0.000  0.000-   1 2.85   2 2.85   3 2.85   7 2.85   8 2.85  10 2.85  13 2.85  16 2.85
                             6 3.29  14 3.29   4 3.29   6 3.29   4 3.29  14 3.29
   6  0.500  0.000  0.500-   1 2.85   2 2.85   3 2.85   7 2.85   8 2.85  10 2.85  13 2.85  16 2.85
                            12 3.29   5 3.29  11 3.29   5 3.29  12 3.29  11 3.29
   7  0.250  0.750  0.750-   4 2.85   5 2.85   6 2.85   9 2.85  11 2.85  12 2.85  14 2.85  15 2.85
                             2 3.29  10 3.29  16 3.29  10 3.29  16 3.29   2 3.29
   8  0.750  0.250  0.250-   4 2.85   5 2.85   6 2.85   9 2.85  11 2.85  12 2.85  14 2.85  15 2.85
                            13 3.29   1 3.29   3 3.29   3 3.29  13 3.29   1 3.29
   9  0.000  0.500  0.000-   1 2.85   2 2.85   3 2.85   7 2.85   8 2.85  10 2.85  13 2.85  16 2.85
                            14 3.29  15 3.29   4 3.29  15 3.29  14 3.29   4 3.29
  10  0.250  0.750  0.250-   4 2.85   5 2.85   6 2.85   9 2.85  11 2.85  12 2.85  14 2.85  15 2.85
                             7 3.29  13 3.29   7 3.29  13 3.29
  11  0.000  0.000  0.500-   1 2.85   2 2.85   3 2.85   7 2.85   8 2.85  10 2.85  13 2.85  16 2.85
                            14 3.29  15 3.29   6 3.29  14 3.29  15 3.29   6 3.29
  12  0.500  0.500  0.500-   1 2.85   2 2.85   3 2.85   7 2.85   8 2.85  10 2.85  13 2.85  16 2.85
                             6 3.29  15 3.29   4 3.29   4 3.29   6 3.29  15 3.29
  13  0.750  0.750  0.250-   4 2.85   5 2.85   6 2.85   9 2.85  11 2.85  12 2.85  14 2.85  15 2.85
                             8 3.29  10 3.29   8 3.29  10 3.29
  14  0.000  0.000  0.000-   1 2.85   2 2.85   3 2.85   7 2.85   8 2.85  10 2.85  13 2.85  16 2.85
                            11 3.29   9 3.29   5 3.29  11 3.29   9 3.29   5 3.29
  15  0.000  0.500  0.500-   1 2.85   2 2.85   3 2.85   7 2.85   8 2.85  10 2.85  13 2.85  16 2.85
                            12 3.29   9 3.29  11 3.29   9 3.29  11 3.29  12 3.29
  16  0.250  0.250  0.750-   4 2.85   5 2.85   6 2.85   9 2.85  11 2.85  12 2.85  14 2.85  15 2.85
                             7 3.29   3 3.29   7 3.29   3 3.29
 
  LATTYP: Found a simple cubic cell.
 ALAT       =     6.5800000000
  
  Lattice vectors:
  
 A1 = (   6.5800000000,   0.0000000000,   0.0000000000)
 A2 = (   0.0000000000,   6.5800000000,   0.0000000000)
 A3 = (   0.0000000000,   0.0000000000,   6.5800000000)


Analysis of symmetry for initial positions (statically):
=====================================================================
 Subroutine PRICEL returns:
 Original cell was already a primitive cell.
 

 Routine SETGRP: Setting up the symmetry group for a 
 simple cubic supercell.


 Subroutine GETGRP returns: Found  1 space group operations
 (whereof  1 operations were pure point group operations)
 out of a pool of 48 trial point group operations.


The static configuration has the point symmetry C_1 .


Analysis of symmetry for dynamics (positions and initial velocities):
=====================================================================
 Subroutine PRICEL returns:
 Original cell was already a primitive cell.
 

 Routine SETGRP: Setting up the symmetry group for a 
 simple cubic supercell.


 Subroutine GETGRP returns: Found  1 space group operations
 (whereof  1 operations were pure point group operations)
 out of a pool of 48 trial point group operations.


The dynamic configuration has the point symmetry C_1 .


 Subroutine INISYM returns: Found  1 space group operations
 (whereof  1 operations are pure point group operations),
 and found     1 'primitive' translations


----------------------------------------------------------------------------------------

                                     Primitive cell                                     

  volume of cell :     284.8903

  direct lattice vectors                    reciprocal lattice vectors
     6.580000000  0.000000000  0.000000000     0.151975684  0.000000000  0.000000000
     0.000000000  6.580000000  0.000000000     0.000000000  0.151975684  0.000000000
     0.000000000  0.000000000  6.580000000     0.000000000  0.000000000  0.151975684

  length of vectors
     6.580000000  6.580000000  6.580000000     0.151975684  0.151975684  0.151975684

  position of ions in fractional coordinates (direct lattice)
     0.250000000  0.250000000  0.250000000
     0.750000000  0.750000000  0.750000000
     0.750000000  0.250000000  0.750000000
     0.500000000  0.500000000  0.000000000
     0.500000000  0.000000000  0.000000000
     0.500000000  0.000000000  0.500000000
     0.250000000  0.750000000  0.750000000
     0.750000000  0.250000000  0.250000000
     0.000000000  0.500000000  0.000000000
     0.250000000  0.750000000  0.250000000
     0.000000000  0.000000000  0.500000000
     0.500000000  0.500000000  0.500000000
     0.750000000  0.750000000  0.250000000
     0.000000000  0.000000000  0.000000000
     0.000000000  0.500000000  0.500000000
     0.250000000  0.250000000  0.750000000

  ion indices of the primitive-cell ions
   primitive index   ion index
                 1           1
                 2           2
                 3           3
                 4           4
                 5           5
                 6           6
                 7           7
                 8           8
                 9           9
                10          10
                11          11
                12          12
                13          13
                14          14
                15          15
                16          16

----------------------------------------------------------------------------------------

 
 
 KPOINTS: K-Spacing Value to Generate K-Mesh: 0.03

Automatic generation of k-mesh.
 Grid dimensions read from file:
 generate k-points for:    5    5    5

 Generating k-lattice:

  Cartesian coordinates                     Fractional coordinates (reciprocal lattice)
     0.030395137  0.000000000  0.000000000     0.200000000  0.000000000  0.000000000
     0.000000000  0.030395137  0.000000000     0.000000000  0.200000000  0.000000000
     0.000000000  0.000000000  0.030395137     0.000000000  0.000000000  0.200000000

  Length of vectors
     0.030395137  0.030395137  0.030395137

  Shift w.r.t. Gamma in fractional coordinates (k-lattice)
     0.000000000  0.000000000  0.000000000

 
 Subroutine IBZKPT returns following result:
 ===========================================
 
 Found     63 irreducible k-points:
 
 Following reciprocal coordinates:
            Coordinates               Weight
  0.000000  0.000000  0.000000      1.000000
  0.200000  0.000000  0.000000      2.000000
  0.000000  0.200000  0.000000      2.000000
  0.000000  0.000000  0.200000      2.000000
  0.400000  0.000000  0.000000      2.000000
  0.000000  0.400000  0.000000      2.000000
  0.000000  0.000000  0.400000      2.000000
  0.200000  0.200000  0.000000      2.000000
  0.000000  0.200000  0.200000      2.000000
  0.200000  0.000000  0.200000      2.000000
 -0.200000  0.200000  0.000000      2.000000
 -0.200000  0.000000  0.200000      2.000000
  0.000000 -0.200000  0.200000      2.000000
  0.400000  0.200000  0.000000      2.000000
  0.000000  0.400000  0.200000      2.000000
  0.200000  0.000000  0.400000      2.000000
 -0.200000  0.400000  0.000000      2.000000
 -0.400000  0.000000  0.200000      2.000000
  0.000000  0.200000  0.400000      2.000000
  0.000000 -0.400000  0.200000      2.000000
 -0.200000  0.000000  0.400000      2.000000
  0.400000  0.000000  0.200000      2.000000
  0.000000 -0.200000  0.400000      2.000000
  0.400000 -0.200000  0.000000      2.000000
  0.200000  0.400000  0.000000      2.000000
  0.400000  0.400000  0.000000      2.000000
  0.000000  0.400000  0.400000      2.000000
  0.400000  0.000000  0.400000      2.000000
 -0.400000  0.400000  0.000000      2.000000
 -0.400000  0.000000  0.400000      2.000000
  0.000000 -0.400000  0.400000      2.000000
  0.200000  0.200000  0.200000      2.000000
 -0.200000  0.200000  0.200000      2.000000
 -0.200000 -0.200000  0.200000      2.000000
  0.200000 -0.200000  0.200000      2.000000
  0.400000  0.200000  0.200000      2.000000
  0.200000  0.400000  0.200000      2.000000
  0.200000  0.200000  0.400000      2.000000
 -0.200000  0.400000  0.200000      2.000000
 -0.400000  0.200000  0.200000      2.000000
 -0.200000  0.200000  0.400000      2.000000
 -0.400000 -0.200000  0.200000      2.000000
 -0.200000 -0.400000  0.200000      2.000000
 -0.200000 -0.200000  0.400000      2.000000
  0.200000 -0.400000  0.200000      2.000000
  0.400000 -0.200000  0.200000      2.000000
  0.200000 -0.200000  0.400000      2.000000
  0.400000  0.400000  0.200000      2.000000
  0.200000  0.400000  0.400000      2.000000
  0.400000  0.200000  0.400000      2.000000
 -0.400000  0.400000  0.200000      2.000000
 -0.400000  0.200000  0.400000      2.000000
 -0.200000  0.400000  0.400000      2.000000
 -0.400000 -0.400000  0.200000      2.000000
 -0.200000 -0.400000  0.400000      2.000000
 -0.400000 -0.200000  0.400000      2.000000
  0.400000 -0.400000  0.200000      2.000000
  0.400000 -0.200000  0.400000      2.000000
  0.200000 -0.400000  0.400000      2.000000
  0.400000  0.400000  0.400000      2.000000
 -0.400000  0.400000  0.400000      2.000000
 -0.400000 -0.400000  0.400000      2.000000
  0.400000 -0.400000  0.400000      2.000000
 
 Following cartesian coordinates:
            Coordinates               Weight
  0.000000  0.000000  0.000000      1.000000
  0.030395  0.000000  0.000000      2.000000
  0.000000  0.030395  0.000000      2.000000
  0.000000  0.000000  0.030395      2.000000
  0.060790  0.000000  0.000000      2.000000
  0.000000  0.060790  0.000000      2.000000
  0.000000  0.000000  0.060790      2.000000
  0.030395  0.030395  0.000000      2.000000
  0.000000  0.030395  0.030395      2.000000
  0.030395  0.000000  0.030395      2.000000
 -0.030395  0.030395  0.000000      2.000000
 -0.030395  0.000000  0.030395      2.000000
  0.000000 -0.030395  0.030395      2.000000
  0.060790  0.030395  0.000000      2.000000
  0.000000  0.060790  0.030395      2.000000
  0.030395  0.000000  0.060790      2.000000
 -0.030395  0.060790  0.000000      2.000000
 -0.060790  0.000000  0.030395      2.000000
  0.000000  0.030395  0.060790      2.000000
  0.000000 -0.060790  0.030395      2.000000
 -0.030395  0.000000  0.060790      2.000000
  0.060790  0.000000  0.030395      2.000000
  0.000000 -0.030395  0.060790      2.000000
  0.060790 -0.030395  0.000000      2.000000
  0.030395  0.060790  0.000000      2.000000
  0.060790  0.060790  0.000000      2.000000
  0.000000  0.060790  0.060790      2.000000
  0.060790  0.000000  0.060790      2.000000
 -0.060790  0.060790  0.000000      2.000000
 -0.060790  0.000000  0.060790      2.000000
  0.000000 -0.060790  0.060790      2.000000
  0.030395  0.030395  0.030395      2.000000
 -0.030395  0.030395  0.030395      2.000000
 -0.030395 -0.030395  0.030395      2.000000
  0.030395 -0.030395  0.030395      2.000000
  0.060790  0.030395  0.030395      2.000000
  0.030395  0.060790  0.030395      2.000000
  0.030395  0.030395  0.060790      2.000000
 -0.030395  0.060790  0.030395      2.000000
 -0.060790  0.030395  0.030395      2.000000
 -0.030395  0.030395  0.060790      2.000000
 -0.060790 -0.030395  0.030395      2.000000
 -0.030395 -0.060790  0.030395      2.000000
 -0.030395 -0.030395  0.060790      2.000000
  0.030395 -0.060790  0.030395      2.000000
  0.060790 -0.030395  0.030395      2.000000
  0.030395 -0.030395  0.060790      2.000000
  0.060790  0.060790  0.030395      2.000000
  0.030395  0.060790  0.060790      2.000000
  0.060790  0.030395  0.060790      2.000000
 -0.060790  0.060790  0.030395      2.000000
 -0.060790  0.030395  0.060790      2.000000
 -0.030395  0.060790  0.060790      2.000000
 -0.060790 -0.060790  0.030395      2.000000
 -0.030395 -0.060790  0.060790      2.000000
 -0.060790 -0.030395  0.060790      2.000000
  0.060790 -0.060790  0.030395      2.000000
  0.060790 -0.030395  0.060790      2.000000
  0.030395 -0.060790  0.060790      2.000000
  0.060790  0.060790  0.060790      2.000000
 -0.060790  0.060790  0.060790      2.000000
 -0.060790 -0.060790  0.060790      2.000000
  0.060790 -0.060790  0.060790      2.000000
 


--------------------------------------------------------------------------------------------------------




 Dimension of arrays:
   k-points           NKPTS =     63   k-points in BZ     NKDIM =     63   number of bands    NBANDS=    128
   number of dos      NEDOS =    301   number of ions     NIONS =     16
   non local maximal  LDIM  =      6   non local SUM 2l+1 LMDIM =     18
   total plane-waves  NPLWV =  46656
   max r-space proj   IRMAX =      1   max aug-charges    IRDMAX=   9546
   dimension x,y,z NGX =    36 NGY =   36 NGZ =   36
   dimension x,y,z NGXF=    72 NGYF=   72 NGZF=   72
   support grid    NGXF=    72 NGYF=   72 NGZF=   72
   ions per type =               2   3   4   7
   NGX,Y,Z   is equivalent  to a cutoff of   9.10,  9.10,  9.10 a.u.
   NGXF,Y,Z  is equivalent  to a cutoff of  18.19, 18.19, 18.19 a.u.

 SYSTEM =  unknown system                          
 POSCAR =  Nb-Mo-Ta-W alloy                        

 Startparameter for this run:
   NWRITE =      2    write-flag & timer
   PREC   = accura    normal or accurate (medium, high low for compatibility)
   ISTART =      0    job   : 0-new  1-cont  2-samecut
   ICHARG =      2    charge: 1-file 2-atom 10-const
   ISPIN  =      1    spin polarized calculation?
   LNONCOLLINEAR =      F non collinear calculations
   LSORBIT =      F    spin-orbit coupling
   INIWAV =      1    electr: 0-lowe 1-rand  2-diag
   LASPH  =      F    aspherical Exc in radial PAW
 Electronic Relaxation 1
   ENCUT  =  250.0 eV  18.37 Ry    4.29 a.u.   8.48  8.48  8.48*2*pi/ulx,y,z
   ENINI  =  250.0     initial cutoff
   ENAUG  =  455.7 eV  augmentation charge cutoff
   NELM   =     80;   NELMIN=  2; NELMDL= -5     # of ELM steps 
   EDIFF  = 0.1E-07   stopping-criterion for ELM
   LREAL  =      F    real-space projection
   NLSPLINE    = F    spline interpolate recip. space projectors
   LCOMPAT=      F    compatible to vasp.4.4
   GGA_COMPAT  = T    GGA compatible to vasp.4.4-vasp.4.6
   LMAXPAW     = -100 max onsite density
   LMAXMIX     =    2 max onsite mixed and CHGCAR
   VOSKOWN=      0    Vosko Wilk Nusair interpolation
   ROPT   =    0.00000   0.00000   0.00000   0.00000
 Ionic relaxation
   EDIFFG = -.1E-01   stopping-criterion for IOM
   NSW    =      0    number of steps for IOM
   NBLOCK =      1;   KBLOCK =      1    inner block; outer block 
   IBRION =     -1    ionic relax: 0-MD 1-quasi-New 2-CG
   NFREE  =      0    steps in history (QN), initial steepest desc. (CG)
   ISIF   =      2    stress and relaxation
   IWAVPR =     10    prediction:  0-non 1-charg 2-wave 3-comb
   ISYM   =      2    0-nonsym 1-usesym 2-fastsym
   LCORR  =      T    Harris-Foulkes like correction to forces

   POTIM  = 0.5000    time-step for ionic-motion
   TEIN   =    0.0    initial temperature
   TEBEG  =    0.0;   TEEND  =   0.0 temperature during run
   SMASS  =  -3.00    Nose mass-parameter (am)
   estimated Nose-frequenzy (Omega)   =  0.10E-29 period in steps = 0.13E+47 mass=  -0.989E-27a.u.
   SCALEE = 1.0000    scale energy and forces
   NPACO  =    256;   APACO  = 10.0  distance and # of slots for P.C.
   PSTRESS=    0.0 pullay stress

  Mass of Ions in am
   POMASS =  92.91 95.94180.95183.85
  Ionic Valenz
   ZVAL   =  13.00 14.00 11.00 14.00
  Atomic Wigner-Seitz radii
   RWIGS  =  -1.00 -1.00 -1.00 -1.00
  virtual crystal weights 
   VCA    =   1.00  1.00  1.00  1.00
   NELECT =     210.0000    total number of electrons
   NUPDOWN=      -1.0000    fix difference up-down

 DOS related values:
   EMIN   =  10.00;   EMAX   =-10.00  energy-range for DOS
   EFERMI =   0.00
   ISMEAR =     0;   SIGMA  =   0.02  broadening in eV -4-tet -1-fermi 0-gaus

 Electronic relaxation 2 (details)
   IALGO  =     38    algorithm
   LDIAG  =      T    sub-space diagonalisation (order eigenvalues)
   LSUBROT=      F    optimize rotation matrix (better conditioning)
   TURBO    =      0    0=normal 1=particle mesh
   IRESTART =      0    0=no restart 2=restart with 2 vectors
   NREBOOT  =      0    no. of reboots
   NMIN     =      0    reboot dimension
   EREF     =   0.00    reference energy to select bands
   IMIX   =      4    mixing-type and parameters
     AMIX     =   0.40;   BMIX     =  1.00
     AMIX_MAG =   1.60;   BMIX_MAG =  1.00
     AMIN     =   0.10
     WC   =   100.;   INIMIX=   1;  MIXPRE=   1;  MAXMIX= -45

 Intra band minimization:
   WEIMIN = 0.0000     energy-eigenvalue tresh-hold
   EBREAK =  0.20E-10  absolut break condition
   DEPER  =   0.30     relativ break condition  

   TIME   =   0.40     timestep for ELM

  volume/ion in A,a.u.               =      17.81       120.16
  Fermi-wavevector in a.u.,A,eV,Ry     =   1.478843  2.794608 29.755619  2.186976
  Thomas-Fermi vector in A             =   2.593074
 
 Write flags
   LWAVE        =      F    write WAVECAR
   LDOWNSAMPLE  =      F    k-point downsampling of WAVECAR
   LCHARG       =      F    write CHGCAR
   LVTOT        =      F    write LOCPOT, total local potential
   LVHAR        =      F    write LOCPOT, Hartree potential only
   LELF         =      F    write electronic localiz. function (ELF)
   LORBIT       =      0    0 simple, 1 ext, 2 COOP (PROOUT), +10 PAW based schemes


 Dipole corrections
   LMONO  =      F    monopole corrections only (constant potential shift)
   LDIPOL =      F    correct potential (dipole corrections)
   IDIPOL =      0    1-x, 2-y, 3-z, 4-all directions 
   EPSILON=  1.0000000 bulk dielectric constant

 Core level calculations are selected ICORELEVEL =  1
 Exchange correlation treatment:
   GGA     =    PE    GGA type
   LEXCH   =     8    internal setting for exchange type
   LIBXC   =     F    Libxc                    
   VOSKOWN =     0    Vosko Wilk Nusair interpolation
   LHFCALC =     F    Hartree Fock is set to
   LHFONE  =     F    Hartree Fock one center treatment
   AEXX    =    0.0000 exact exchange contribution

 Linear response parameters
   LEPSILON=     F    determine dielectric tensor
   LRPA    =     F    only Hartree local field effects (RPA)
   LNABLA  =     F    use nabla operator in PAW spheres
   LVEL    =     F    velocity operator in full k-point grid
   CSHIFT  =0.1000    complex shift for real part using Kramers Kronig
   OMEGAMAX=  -1.0    maximum frequency
   DEG_THRESHOLD= 0.2000000E-02 threshold for treating states as degnerate
   RTIME   =   -0.100 relaxation time in fs
  (WPLASMAI=    0.000 imaginary part of plasma frequency in eV, 0.658/RTIME)
   DFIELD  = 0.0000000 0.0000000 0.0000000 field for delta impulse in time
 
  Optional k-point grid parameters
   LKPOINTS_OPT  =     F    use optional k-point grid
   KPOINTS_OPT_MODE=     1    mode for optional k-point grid
 
 Orbital magnetization related:
   ORBITALMAG=     F  switch on orbital magnetization
   LCHIMAG   =     F  perturbation theory with respect to B field
   DQ        =  0.001000  dq finite difference perturbation B field
   LLRAUG    =     F  two centre corrections for induced B field



--------------------------------------------------------------------------------------------------------


 Static calculation
 charge density and potential will be updated during run
 non-spin polarized calculation
 Variant of blocked Davidson
 Davidson routine will perform the subspace rotation
 perform sub-space diagonalisation
    after iterative eigenvector-optimisation
 modified Broyden-mixing scheme, WC =      100.0
 initial mixing is a Kerker type mixing with AMIX =  0.4000 and BMIX =      1.0000
 Hartree-type preconditioning will be used
 using additional bands           23
 reciprocal scheme for non local part
 use partial core corrections
 calculate Harris-corrections to forces 
   (improved forces if not selfconsistent)
 use gradient corrections 
 use of overlap-Matrix (Vanderbilt PP)
 Gauss-broadening in eV      SIGMA  =   0.02


--------------------------------------------------------------------------------------------------------


  energy-cutoff  :      250.00
  volume of cell :      284.89
      direct lattice vectors                 reciprocal lattice vectors
     6.580000000  0.000000000  0.000000000     0.151975684  0.000000000  0.000000000
     0.000000000  6.580000000  0.000000000     0.000000000  0.151975684  0.000000000
     0.000000000  0.000000000  6.580000000     0.000000000  0.000000000  0.151975684

  length of vectors
     6.580000000  6.580000000  6.580000000     0.151975684  0.151975684  0.151975684


 
 k-points in units of 2pi/SCALE and weight: K-Spacing Value to Generate K-Mesh: 0.03
   0.00000000  0.00000000  0.00000000       0.008
   0.03039514  0.00000000  0.00000000       0.016
   0.00000000  0.03039514  0.00000000       0.016
   0.00000000  0.00000000  0.03039514       0.016
   0.06079027  0.00000000  0.00000000       0.016
   0.00000000  0.06079027  0.00000000       0.016
   0.00000000  0.00000000  0.06079027       0.016
   0.03039514  0.03039514  0.00000000       0.016
   0.00000000  0.03039514  0.03039514       0.016
   0.03039514  0.00000000  0.03039514       0.016
  -0.03039514  0.03039514  0.00000000       0.016
  -0.03039514  0.00000000  0.03039514       0.016
   0.00000000 -0.03039514  0.03039514       0.016
   0.06079027  0.03039514  0.00000000       0.016
   0.00000000  0.06079027  0.03039514       0.016
   0.03039514  0.00000000  0.06079027       0.016
  -0.03039514  0.06079027  0.00000000       0.016
  -0.06079027  0.00000000  0.03039514       0.016
   0.00000000  0.03039514  0.06079027       0.016
   0.00000000 -0.06079027  0.03039514       0.016
  -0.03039514  0.00000000  0.06079027       0.016
   0.06079027  0.00000000  0.03039514       0.016
   0.00000000 -0.03039514  0.06079027       0.016
   0.06079027 -0.03039514  0.00000000       0.016
   0.03039514  0.06079027  0.00000000       0.016
   0.06079027  0.06079027  0.00000000       0.016
   0.00000000  0.06079027  0.06079027       0.016
   0.06079027  0.00000000  0.06079027       0.016
  -0.06079027  0.06079027  0.00000000       0.016
  -0.06079027  0.00000000  0.06079027       0.016
   0.00000000 -0.06079027  0.06079027       0.016
   0.03039514  0.03039514  0.03039514       0.016
  -0.03039514  0.03039514  0.03039514       0.016
  -0.03039514 -0.03039514  0.03039514       0.016
   0.03039514 -0.03039514  0.03039514       0.016
   0.06079027  0.03039514  0.03039514       0.016
   0.03039514  0.06079027  0.03039514       0.016
   0.03039514  0.03039514  0.06079027       0.016
  -0.03039514  0.06079027  0.03039514       0.016
  -0.06079027  0.03039514  0.03039514       0.016
  -0.03039514  0.03039514  0.06079027       0.016
  -0.06079027 -0.03039514  0.03039514       0.016
  -0.03039514 -0.06079027  0.03039514       0.016
  -0.03039514 -0.03039514  0.06079027       0.016
   0.03039514 -0.06079027  0.03039514       0.016
   0.06079027 -0.03039514  0.03039514       0.016
   0.03039514 -0.03039514  0.06079027       0.016
   0.06079027  0.06079027  0.03039514       0.016
   0.03039514  0.06079027  0.06079027       0.016
   0.06079027  0.03039514  0.06079027       0.016
  -0.06079027  0.06079027  0.03039514       0.016
  -0.06079027  0.03039514  0.06079027       0.016
  -0.03039514  0.06079027  0.06079027       0.016
  -0.06079027 -0.06079027  0.03039514       0.016
  -0.03039514 -0.06079027  0.06079027       0.016
  -0.06079027 -0.03039514  0.06079027       0.016
   0.06079027 -0.06079027  0.03039514       0.016
   0.06079027 -0.03039514  0.06079027       0.016
   0.03039514 -0.06079027  0.06079027       0.016
   0.06079027  0.06079027  0.06079027       0.016
  -0.06079027  0.06079027  0.06079027       0.016
  -0.06079027 -0.06079027  0.06079027       0.016
   0.06079027 -0.06079027  0.06079027       0.016
 
 k-points in reciprocal lattice and weights: K-Spacing Value to Generate K-Mesh: 0.03
   0.00000000  0.00000000  0.00000000       0.008
   0.20000000  0.00000000  0.00000000       0.016
   0.00000000  0.20000000  0.00000000       0.016
   0.00000000  0.00000000  0.20000000       0.016
   0.40000000  0.00000000  0.00000000       0.016
   0.00000000  0.40000000  0.00000000       0.016
   0.00000000  0.00000000  0.40000000       0.016
   0.20000000  0.20000000  0.00000000       0.016
   0.00000000  0.20000000  0.20000000       0.016
   0.20000000  0.00000000  0.20000000       0.016
  -0.20000000  0.20000000  0.00000000       0.016
  -0.20000000  0.00000000  0.20000000       0.016
   0.00000000 -0.20000000  0.20000000       0.016
   0.40000000  0.20000000  0.00000000       0.016
   0.00000000  0.40000000  0.20000000       0.016
   0.20000000  0.00000000  0.40000000       0.016
  -0.20000000  0.40000000  0.00000000       0.016
  -0.40000000  0.00000000  0.20000000       0.016
   0.00000000  0.20000000  0.40000000       0.016
   0.00000000 -0.40000000  0.20000000       0.016
  -0.20000000  0.00000000  0.40000000       0.016
   0.40000000  0.00000000  0.20000000       0.016
   0.00000000 -0.20000000  0.40000000       0.016
   0.40000000 -0.20000000  0.00000000       0.016
   0.20000000  0.40000000  0.00000000       0.016
   0.40000000  0.40000000  0.00000000       0.016
   0.00000000  0.40000000  0.40000000       0.016
   0.40000000  0.00000000  0.40000000       0.016
  -0.40000000  0.40000000  0.00000000       0.016
  -0.40000000  0.00000000  0.40000000       0.016
   0.00000000 -0.40000000  0.40000000       0.016
   0.20000000  0.20000000  0.20000000       0.016
  -0.20000000  0.20000000  0.20000000       0.016
  -0.20000000 -0.20000000  0.20000000       0.016
   0.20000000 -0.20000000  0.20000000       0.016
   0.40000000  0.20000000  0.20000000       0.016
   0.20000000  0.40000000  0.20000000       0.016
   0.20000000  0.20000000  0.40000000       0.016
  -0.20000000  0.40000000  0.20000000       0.016
  -0.40000000  0.20000000  0.20000000       0.016
  -0.20000000  0.20000000  0.40000000       0.016
  -0.40000000 -0.20000000  0.20000000       0.016
  -0.20000000 -0.40000000  0.20000000       0.016
  -0.20000000 -0.20000000  0.40000000       0.016
   0.20000000 -0.40000000  0.20000000       0.016
   0.40000000 -0.20000000  0.20000000       0.016
   0.20000000 -0.20000000  0.40000000       0.016
   0.40000000  0.40000000  0.20000000       0.016
   0.20000000  0.40000000  0.40000000       0.016
   0.40000000  0.20000000  0.40000000       0.016
  -0.40000000  0.40000000  0.20000000       0.016
  -0.40000000  0.20000000  0.40000000       0.016
  -0.20000000  0.40000000  0.40000000       0.016
  -0.40000000 -0.40000000  0.20000000       0.016
  -0.20000000 -0.40000000  0.40000000       0.016
  -0.40000000 -0.20000000  0.40000000       0.016
   0.40000000 -0.40000000  0.20000000       0.016
   0.40000000 -0.20000000  0.40000000       0.016
   0.20000000 -0.40000000  0.40000000       0.016
   0.40000000  0.40000000  0.40000000       0.016
  -0.40000000  0.40000000  0.40000000       0.016
  -0.40000000 -0.40000000  0.40000000       0.016
   0.40000000 -0.40000000  0.40000000       0.016
 
 position of ions in fractional coordinates (direct lattice) 
   0.25000000  0.25000000  0.25000000
   0.75000000  0.75000000  0.75000000
   0.75000000  0.25000000  0.75000000
   0.50000000  0.50000000  0.00000000
   0.50000000  0.00000000  0.00000000
   0.50000000  0.00000000  0.50000000
   0.25000000  0.75000000  0.75000000
   0.75000000  0.25000000  0.25000000
   0.00000000  0.50000000  0.00000000
   0.25000000  0.75000000  0.25000000
   0.00000000  0.00000000  0.50000000
   0.50000000  0.50000000  0.50000000
   0.75000000  0.75000000  0.25000000
   0.00000000  0.00000000  0.00000000
   0.00000000  0.50000000  0.50000000
   0.25000000  0.25000000  0.75000000
 
 position of ions in cartesian coordinates  (Angst):
   1.64500000  1.64500000  1.64500000
   4.93500000  4.93500000  4.93500000
   4.93500000  1.64500000  4.93500000
   3.29000000  3.29000000  0.00000000
   3.29000000  0.00000000  0.00000000
   3.29000000  0.00000000  3.29000000
   1.64500000  4.93500000  4.93500000
   4.93500000  1.64500000  1.64500000
   0.00000000  3.29000000  0.00000000
   1.64500000  4.93500000  1.64500000
   0.00000000  0.00000000  3.29000000
   3.29000000  3.29000000  3.29000000
   4.93500000  4.93500000  1.64500000
   0.00000000  0.00000000  0.00000000
   0.00000000  3.29000000  3.29000000
   1.64500000  1.64500000  4.93500000
 


--------------------------------------------------------------------------------------------------------


 k-point   1 :   0.0000 0.0000 0.0000  plane waves:    2517
 k-point   2 :   0.2000 0.0000 0.0000  plane waves:    2545
 k-point   3 :   0.0000 0.2000 0.0000  plane waves:    2545
 k-point   4 :   0.0000 0.0000 0.2000  plane waves:    2545
 k-point   5 :   0.4000 0.0000 0.0000  plane waves:    2569
 k-point   6 :   0.0000 0.4000 0.0000  plane waves:    2569
 k-point   7 :   0.0000 0.0000 0.4000  plane waves:    2569
 k-point   8 :   0.2000 0.2000 0.0000  plane waves:    2562
 k-point   9 :   0.0000 0.2000 0.2000  plane waves:    2562
 k-point  10 :   0.2000 0.0000 0.2000  plane waves:    2562
 k-point  11 :  -0.2000 0.2000 0.0000  plane waves:    2562
 k-point  12 :  -0.2000 0.0000 0.2000  plane waves:    2562
 k-point  13 :   0.0000-0.2000 0.2000  plane waves:    2562
 k-point  14 :   0.4000 0.2000 0.0000  plane waves:    2566
 k-point  15 :   0.0000 0.4000 0.2000  plane waves:    2566
 k-point  16 :   0.2000 0.0000 0.4000  plane waves:    2566
 k-point  17 :  -0.2000 0.4000 0.0000  plane waves:    2566
 k-point  18 :  -0.4000 0.0000 0.2000  plane waves:    2566
 k-point  19 :   0.0000 0.2000 0.4000  plane waves:    2566
 k-point  20 :   0.0000-0.4000 0.2000  plane waves:    2566
 k-point  21 :  -0.2000 0.0000 0.4000  plane waves:    2566
 k-point  22 :   0.4000 0.0000 0.2000  plane waves:    2566
 k-point  23 :   0.0000-0.2000 0.4000  plane waves:    2566
 k-point  24 :   0.4000-0.2000 0.0000  plane waves:    2566
 k-point  25 :   0.2000 0.4000 0.0000  plane waves:    2566
 k-point  26 :   0.4000 0.4000 0.0000  plane waves:    2570
 k-point  27 :   0.0000 0.4000 0.4000  plane waves:    2570
 k-point  28 :   0.4000 0.0000 0.4000  plane waves:    2570
 k-point  29 :  -0.4000 0.4000 0.0000  plane waves:    2570
 k-point  30 :  -0.4000 0.0000 0.4000  plane waves:    2570
 k-point  31 :   0.0000-0.4000 0.4000  plane waves:    2570
 k-point  32 :   0.2000 0.2000 0.2000  plane waves:    2572
 k-point  33 :  -0.2000 0.2000 0.2000  plane waves:    2572
 k-point  34 :  -0.2000-0.2000 0.2000  plane waves:    2572
 k-point  35 :   0.2000-0.2000 0.2000  plane waves:    2572
 k-point  36 :   0.4000 0.2000 0.2000  plane waves:    2546
 k-point  37 :   0.2000 0.4000 0.2000  plane waves:    2546
 k-point  38 :   0.2000 0.2000 0.4000  plane waves:    2546
 k-point  39 :  -0.2000 0.4000 0.2000  plane waves:    2546
 k-point  40 :  -0.4000 0.2000 0.2000  plane waves:    2546
 k-point  41 :  -0.2000 0.2000 0.4000  plane waves:    2546
 k-point  42 :  -0.4000-0.2000 0.2000  plane waves:    2546
 k-point  43 :  -0.2000-0.4000 0.2000  plane waves:    2546
 k-point  44 :  -0.2000-0.2000 0.4000  plane waves:    2546
 k-point  45 :   0.2000-0.4000 0.2000  plane waves:    2546
 k-point  46 :   0.4000-0.2000 0.2000  plane waves:    2546
 k-point  47 :   0.2000-0.2000 0.4000  plane waves:    2546
 k-point  48 :   0.4000 0.4000 0.2000  plane waves:    2549
 k-point  49 :   0.2000 0.4000 0.4000  plane waves:    2549
 k-point  50 :   0.4000 0.2000 0.4000  plane waves:    2549
 k-point  51 :  -0.4000 0.4000 0.2000  plane waves:    2549
 k-point  52 :  -0.4000 0.2000 0.4000  plane waves:    2549
 k-point  53 :  -0.2000 0.4000 0.4000  plane waves:    2549
 k-point  54 :  -0.4000-0.4000 0.2000  plane waves:    2549
 k-point  55 :  -0.2000-0.4000 0.4000  plane waves:    2549
 k-point  56 :  -0.4000-0.2000 0.4000  plane waves:    2549
 k-point  57 :   0.4000-0.4000 0.2000  plane waves:    2549
 k-point  58 :   0.4000-0.2000 0.4000  plane waves:    2549
 k-point  59 :   0.2000-0.4000 0.4000  plane waves:    2549
 k-point  60 :   0.4000 0.4000 0.4000  plane waves:    2533
 k-point  61 :  -0.4000 0.4000 0.4000  plane waves:    2533
 k-point  62 :  -0.4000-0.4000 0.4000  plane waves:    2533
 k-point  63 :   0.4000-0.4000 0.4000  plane waves:    2533

 maximum and minimum number of plane-waves per node :       235      194

 maximum number of plane-waves:      2572
 maximum index in each direction: 
   IXMAX=    8   IYMAX=    8   IZMAX=    8
   IXMIN=   -8   IYMIN=   -8   IZMIN=   -8


 parallel 3D FFT for wavefunctions:
    minimum data exchange during FFTs selected (reduces bandwidth)
 parallel 3D FFT for charge:
    minimum data exchange during FFTs selected (reduces bandwidth)


 total amount of memory used by VASP MPI-rank0    48253. kBytes
=======================================================================

   base      :      30000. kBytes
   nonl-proj :       8332. kBytes
   fftplans  :        456. kBytes
   grid      :        919. kBytes
   one-center:         31. kBytes
   wavefun   :       8515. kBytes
 
     INWAV:  cpu time      0.0000: real time      0.0000
 Broyden mixing: mesh for mixing (old mesh)
   NGX = 17   NGY = 17   NGZ = 17
  (NGX  = 72   NGY  = 72   NGZ  = 72)
  gives a total of   4913 points

 initial charge density was supplied:
 charge density of overlapping atoms calculated
 number of electron     210.0000000 magnetization 
 keeping initial charge density in first step


--------------------------------------------------------------------------------------------------------


 Maximum index for augmentation-charges          517 (set IRDMAX)


--------------------------------------------------------------------------------------------------------


 First call to EWALD:  gamma=   0.269
 Maximum number of real-space cells 3x 3x 3
 Maximum number of reciprocal cells 3x 3x 3

    FEWALD:  cpu time      0.0012: real time      0.0012


--------------------------------------- Iteration      1(   1)  ---------------------------------------


    POTLOK:  cpu time      0.0122: real time      0.2608
    SETDIJ:  cpu time      0.0051: real time      0.0051
     EDDAV:  cpu time     72.7470: real time     75.6844
       DOS:  cpu time      0.0050: real time      0.0050
    --------------------------------------------
      LOOP:  cpu time     72.7693: real time     75.9555

 eigenvalue-minimisations  : 16536
 total energy-change (2. order) : 0.2031953E+04  (-0.8072861E+04)
 number of electron     210.0000000 magnetization 
 augmentation part      210.0000000 magnetization 

 Free energy of the ion-electron system (eV)
  ---------------------------------------------------
  alpha Z        PSCENC =      1957.42503136
  Ewald energy   TEWEN  =    -22034.95018998
  -Hartree energ DENC   =     -4116.49251012
  -exchange      EXHF   =         0.00000000
  -V(xc)+E(xc)   XCENC  =       807.72051762
  PAW double counting   =     20489.09198323   -20171.91894865
  entropy T*S    EENTRO =        -0.00156821
  eigenvalues    EBANDS =      -842.67932805
  atomic energy  EATOM  =     25943.75796052
  Solvation  Ediel_sol  =         0.00000000
  ---------------------------------------------------
  free energy    TOTEN  =      2031.95294772 eV

  energy without entropy =     2031.95451593  energy(sigma->0) =     2031.95373183


--------------------------------------------------------------------------------------------------------




--------------------------------------- Iteration      1(   2)  ---------------------------------------


     EDDAV:  cpu time      3.0729: real time      3.0853
       DOS:  cpu time      0.0047: real time      0.0048
    --------------------------------------------
      LOOP:  cpu time      3.0777: real time      3.0901

 eigenvalue-minimisations  : 16616
 total energy-change (2. order) :-0.2066206E+04  (-0.1998180E+04)
 number of electron     210.0000000 magnetization 
 augmentation part      210.0000000 magnetization 

 Free energy of the ion-electron system (eV)
  ---------------------------------------------------
  alpha Z        PSCENC =      1957.42503136
  Ewald energy   TEWEN  =    -22034.95018998
  -Hartree energ DENC   =     -4116.49251012
  -exchange      EXHF   =         0.00000000
  -V(xc)+E(xc)   XCENC  =       807.72051762
  PAW double counting   =     20489.09198323   -20171.91894865
  entropy T*S    EENTRO =        -0.00182103
  eigenvalues    EBANDS =     -2908.88540089
  atomic energy  EATOM  =     25943.75796052
  Solvation  Ediel_sol  =         0.00000000
  ---------------------------------------------------
  free energy    TOTEN  =       -34.25337795 eV

  energy without entropy =      -34.25155692  energy(sigma->0) =      -34.25246743


--------------------------------------------------------------------------------------------------------




--------------------------------------- Iteration      1(   3)  ---------------------------------------


     EDDAV:  cpu time      3.9201: real time      3.9362
       DOS:  cpu time      0.0049: real time      0.0049
    --------------------------------------------
      LOOP:  cpu time      3.9250: real time      3.9411

 eigenvalue-minimisations  : 22928
 total energy-change (2. order) :-0.1584072E+03  (-0.1488707E+03)
 number of electron     210.0000000 magnetization 
 augmentation part      210.0000000 magnetization 

 Free energy of the ion-electron system (eV)
  ---------------------------------------------------
  alpha Z        PSCENC =      1957.42503136
  Ewald energy   TEWEN  =    -22034.95018998
  -Hartree energ DENC   =     -4116.49251012
  -exchange      EXHF   =         0.00000000
  -V(xc)+E(xc)   XCENC  =       807.72051762
  PAW double counting   =     20489.09198323   -20171.91894865
  entropy T*S    EENTRO =        -0.00126401
  eigenvalues    EBANDS =     -3067.29316108
  atomic energy  EATOM  =     25943.75796052
  Solvation  Ediel_sol  =         0.00000000
  ---------------------------------------------------
  free energy    TOTEN  =      -192.66058111 eV

  energy without entropy =     -192.65931710  energy(sigma->0) =     -192.65994911


--------------------------------------------------------------------------------------------------------




--------------------------------------- Iteration      1(   4)  ---------------------------------------


     EDDAV:  cpu time      3.7578: real time      3.7740
       DOS:  cpu time      0.0054: real time      0.0054
    --------------------------------------------
      LOOP:  cpu time      3.7633: real time      3.7824

 eigenvalue-minimisations  : 21656
 total energy-change (2. order) :-0.8561419E+01  (-0.8348857E+01)
 number of electron     210.0000000 magnetization 
 augmentation part      210.0000000 magnetization 

 Free energy of the ion-electron system (eV)
  ---------------------------------------------------
  alpha Z        PSCENC =      1957.42503136
  Ewald energy   TEWEN  =    -22034.95018998
  -Hartree energ DENC   =     -4116.49251012
  -exchange      EXHF   =         0.00000000
  -V(xc)+E(xc)   XCENC  =       807.72051762
  PAW double counting   =     20489.09198323   -20171.91894865
  entropy T*S    EENTRO =        -0.00163332
  eigenvalues    EBANDS =     -3075.85421028
  atomic energy  EATOM  =     25943.75796052
  Solvation  Ediel_sol  =         0.00000000
  ---------------------------------------------------
  free energy    TOTEN  =      -201.22199962 eV

  energy without entropy =     -201.22036630  energy(sigma->0) =     -201.22118296


--------------------------------------------------------------------------------------------------------




--------------------------------------- Iteration      1(   5)  ---------------------------------------


     EDDAV:  cpu time      4.4677: real time      4.4901
       DOS:  cpu time      0.0052: real time      0.0955
    CHARGE:  cpu time      0.0873: real time      0.0876
    MIXING:  cpu time      0.0003: real time      0.0003
    --------------------------------------------
      LOOP:  cpu time      4.5603: real time      4.6704

 eigenvalue-minimisations  : 26592
 total energy-change (2. order) :-0.5358788E+00  (-0.5320119E+00)
 number of electron     209.9999859 magnetization 
 augmentation part       50.8178283 magnetization 

 Broyden mixing:
  rms(total) = 0.58125E+01    rms(broyden)= 0.58115E+01
  rms(prec ) = 0.63184E+01
  weight for this iteration     100.00

 Free energy of the ion-electron system (eV)
  ---------------------------------------------------
  alpha Z        PSCENC =      1957.42503136
  Ewald energy   TEWEN  =    -22034.95018998
  -Hartree energ DENC   =     -4116.49251012
  -exchange      EXHF   =         0.00000000
  -V(xc)+E(xc)   XCENC  =       807.72051762
  PAW double counting   =     20489.09198323   -20171.91894865
  entropy T*S    EENTRO =        -0.00158412
  eigenvalues    EBANDS =     -3076.39013830
  atomic energy  EATOM  =     25943.75796052
  Solvation  Ediel_sol  =         0.00000000
  ---------------------------------------------------
  free energy    TOTEN  =      -201.75787844 eV

  energy without entropy =     -201.75629432  energy(sigma->0) =     -201.75708638


--------------------------------------------------------------------------------------------------------




--------------------------------------- Iteration      1(   6)  ---------------------------------------


    POTLOK:  cpu time      0.0089: real time      1.3587
    SETDIJ:  cpu time      0.0027: real time      0.0028
     EDDAV:  cpu time      3.4920: real time      3.5076
       DOS:  cpu time      0.0051: real time      0.0051
    CHARGE:  cpu time      0.0871: real time      0.0874
    MIXING:  cpu time      0.0003: real time      0.0003
    --------------------------------------------
      LOOP:  cpu time      3.5962: real time      4.9620

 eigenvalue-minimisations  : 19216
 total energy-change (2. order) : 0.8141282E+01  (-0.1987468E+01)
 number of electron     209.9999852 magnetization 
 augmentation part       52.4898984 magnetization 

 Broyden mixing:
  rms(total) = 0.21515E+01    rms(broyden)= 0.21513E+01
  rms(prec ) = 0.24650E+01
  weight for this iteration     100.00

 eigenvalues of (default mixing * dielectric matrix)
  average eigenvalue GAMMA=   1.4825
  1.4825

 Free energy of the ion-electron system (eV)
  ---------------------------------------------------
  alpha Z        PSCENC =      1957.42503136
  Ewald energy   TEWEN  =    -22034.95018998
  -Hartree energ DENC   =     -3882.99674740
  -exchange      EXHF   =         0.00000000
  -V(xc)+E(xc)   XCENC  =       796.46692942
  PAW double counting   =     24694.37589752   -24411.38915596
  entropy T*S    EENTRO =        -0.00170403
  eigenvalues    EBANDS =     -3256.30461812
  atomic energy  EATOM  =     25943.75796052
  Solvation  Ediel_sol  =         0.00000000
  ---------------------------------------------------
  free energy    TOTEN  =      -193.61659667 eV

  energy without entropy =     -193.61489264  energy(sigma->0) =     -193.61574465


--------------------------------------------------------------------------------------------------------




--------------------------------------- Iteration      1(   7)  ---------------------------------------


    POTLOK:  cpu time      0.0046: real time      0.0047
    SETDIJ:  cpu time      0.0017: real time      0.0017
     EDDAV:  cpu time      3.8979: real time      3.9139
       DOS:  cpu time      0.0049: real time      0.0049
    CHARGE:  cpu time      0.0851: real time      0.0854
    MIXING:  cpu time      0.0003: real time      0.0003
    --------------------------------------------
      LOOP:  cpu time      3.9946: real time      4.0110

 eigenvalue-minimisations  : 22576
 total energy-change (2. order) : 0.1059789E+01  (-0.1079277E+01)
 number of electron     209.9999857 magnetization 
 augmentation part       52.7144047 magnetization 

 Broyden mixing:
  rms(total) = 0.78690E+00    rms(broyden)= 0.78679E+00
  rms(prec ) = 0.14582E+01
  weight for this iteration     100.00

 eigenvalues of (default mixing * dielectric matrix)
  average eigenvalue GAMMA=   1.1794
  1.6501  0.7087

 Free energy of the ion-electron system (eV)
  ---------------------------------------------------
  alpha Z        PSCENC =      1957.42503136
  Ewald energy   TEWEN  =    -22034.95018998
  -Hartree energ DENC   =     -3793.49010833
  -exchange      EXHF   =         0.00000000
  -V(xc)+E(xc)   XCENC  =       791.67226472
  PAW double counting   =     27640.72617224   -27375.19110732
  entropy T*S    EENTRO =        -0.00199575
  eigenvalues    EBANDS =     -3322.50483475
  atomic energy  EATOM  =     25943.75796052
  Solvation  Ediel_sol  =         0.00000000
  ---------------------------------------------------
  free energy    TOTEN  =      -192.55680729 eV

  energy without entropy =     -192.55481154  energy(sigma->0) =     -192.55580942


--------------------------------------------------------------------------------------------------------




--------------------------------------- Iteration      1(   8)  ---------------------------------------


    POTLOK:  cpu time      0.0047: real time      0.0048
    SETDIJ:  cpu time      0.0018: real time      0.0018
     EDDAV:  cpu time      3.6786: real time      3.6946
       DOS:  cpu time      0.0045: real time      0.0045
    CHARGE:  cpu time      0.0844: real time      0.0847
    MIXING:  cpu time      0.0003: real time      0.0003
    --------------------------------------------
      LOOP:  cpu time      3.7743: real time      3.7907

 eigenvalue-minimisations  : 20640
 total energy-change (2. order) : 0.8466641E+00  (-0.4106184E+00)
 number of electron     209.9999852 magnetization 
 augmentation part       53.0971009 magnetization 

 Broyden mixing:
  rms(total) = 0.38104E+00    rms(broyden)= 0.38087E+00
  rms(prec ) = 0.62796E+00
  weight for this iteration     100.00

 eigenvalues of (default mixing * dielectric matrix)
  average eigenvalue GAMMA=   1.1577
  1.7550  1.2383  0.4799

 Free energy of the ion-electron system (eV)
  ---------------------------------------------------
  alpha Z        PSCENC =      1957.42503136
  Ewald energy   TEWEN  =    -22034.95018998
  -Hartree energ DENC   =     -3758.46513585
  -exchange      EXHF   =         0.00000000
  -V(xc)+E(xc)   XCENC  =       790.19242966
  PAW double counting   =     28374.37194365   -28114.22845032
  entropy T*S    EENTRO =        -0.00144119
  eigenvalues    EBANDS =     -3349.81229100
  atomic energy  EATOM  =     25943.75796052
  Solvation  Ediel_sol  =         0.00000000
  ---------------------------------------------------
  free energy    TOTEN  =      -191.71014315 eV

  energy without entropy =     -191.70870196  energy(sigma->0) =     -191.70942256


--------------------------------------------------------------------------------------------------------




--------------------------------------- Iteration      1(   9)  ---------------------------------------


    POTLOK:  cpu time      0.0046: real time      0.0047
    SETDIJ:  cpu time      0.0017: real time      0.0018
     EDDAV:  cpu time      3.6807: real time      3.6965
       DOS:  cpu time      0.0081: real time      2.8107
    CHARGE:  cpu time      0.1145: real time      0.1149
    MIXING:  cpu time      0.0003: real time      0.0003
    --------------------------------------------
      LOOP:  cpu time      3.8100: real time      6.6288

 eigenvalue-minimisations  : 21168
 total energy-change (2. order) : 0.5107080E-01  (-0.8245488E-01)
 number of electron     209.9999854 magnetization 
 augmentation part       53.0856199 magnetization 

 Broyden mixing:
  rms(total) = 0.27237E+00    rms(broyden)= 0.27234E+00
  rms(prec ) = 0.37955E+00
  weight for this iteration     100.00

 eigenvalues of (default mixing * dielectric matrix)
  average eigenvalue GAMMA=   1.2294
  2.2970  1.6190  0.6197  0.3817

 Free energy of the ion-electron system (eV)
  ---------------------------------------------------
  alpha Z        PSCENC =      1957.42503136
  Ewald energy   TEWEN  =    -22034.95018998
  -Hartree energ DENC   =     -3756.08962526
  -exchange      EXHF   =         0.00000000
  -V(xc)+E(xc)   XCENC  =       790.09945566
  PAW double counting   =     28598.56424847   -28339.02899403
  entropy T*S    EENTRO =        -0.00172120
  eigenvalues    EBANDS =     -3351.43523790
  atomic energy  EATOM  =     25943.75796052
  Solvation  Ediel_sol  =         0.00000000
  ---------------------------------------------------
  free energy    TOTEN  =      -191.65907236 eV

  energy without entropy =     -191.65735116  energy(sigma->0) =     -191.65821176


--------------------------------------------------------------------------------------------------------




--------------------------------------- Iteration      1(  10)  ---------------------------------------


    POTLOK:  cpu time      0.0093: real time      1.5971
    SETDIJ:  cpu time      0.0026: real time      0.0026
     EDDAV:  cpu time      3.7428: real time      3.7589
       DOS:  cpu time      0.0046: real time      0.0046
    CHARGE:  cpu time      0.0841: real time      0.0847
    MIXING:  cpu time      0.0003: real time      0.0003
    --------------------------------------------
      LOOP:  cpu time      3.8436: real time      5.4481

 eigenvalue-minimisations  : 21040
 total energy-change (2. order) : 0.3040242E-01  (-0.2237839E-01)
 number of electron     209.9999854 magnetization 
 augmentation part       53.0546705 magnetization 

 Broyden mixing:
  rms(total) = 0.79129E-01    rms(broyden)= 0.79104E-01
  rms(prec ) = 0.13062E+00
  weight for this iteration     100.00

 eigenvalues of (default mixing * dielectric matrix)
  average eigenvalue GAMMA=   1.1886
  2.4105  1.7239  0.9104  0.5132  0.3849

 Free energy of the ion-electron system (eV)
  ---------------------------------------------------
  alpha Z        PSCENC =      1957.42503136
  Ewald energy   TEWEN  =    -22034.95018998
  -Hartree energ DENC   =     -3755.64374954
  -exchange      EXHF   =         0.00000000
  -V(xc)+E(xc)   XCENC  =       790.06298198
  PAW double counting   =     28940.25156339   -28681.24698692
  entropy T*S    EENTRO =        -0.00175044
  eigenvalues    EBANDS =     -3351.28353031
  atomic energy  EATOM  =     25943.75796052
  Solvation  Ediel_sol  =         0.00000000
  ---------------------------------------------------
  free energy    TOTEN  =      -191.62866994 eV

  energy without entropy =     -191.62691950  energy(sigma->0) =     -191.62779472


--------------------------------------------------------------------------------------------------------




--------------------------------------- Iteration      1(  11)  ---------------------------------------


    POTLOK:  cpu time      0.0046: real time      0.0047
    SETDIJ:  cpu time      0.0017: real time      0.0017
     EDDAV:  cpu time      3.7342: real time      3.7492
       DOS:  cpu time      0.0051: real time      0.0051
    CHARGE:  cpu time      0.0894: real time      0.0897
    MIXING:  cpu time      0.0003: real time      0.0003
    --------------------------------------------
      LOOP:  cpu time      3.8355: real time      3.8509

 eigenvalue-minimisations  : 21704
 total energy-change (2. order) : 0.2830946E-02  (-0.4505149E-02)
 number of electron     209.9999854 magnetization 
 augmentation part       53.0443582 magnetization 

 Broyden mixing:
  rms(total) = 0.28933E-01    rms(broyden)= 0.28881E-01
  rms(prec ) = 0.62042E-01
  weight for this iteration     100.00

 eigenvalues of (default mixing * dielectric matrix)
  average eigenvalue GAMMA=   1.0906
  2.4256  1.7229  0.8988  0.3718  0.5622  0.5622

 Free energy of the ion-electron system (eV)
  ---------------------------------------------------
  alpha Z        PSCENC =      1957.42503136
  Ewald energy   TEWEN  =    -22034.95018998
  -Hartree energ DENC   =     -3756.44034250
  -exchange      EXHF   =         0.00000000
  -V(xc)+E(xc)   XCENC  =       790.10825122
  PAW double counting   =     28983.84491228   -28724.64156891
  entropy T*S    EENTRO =        -0.00161821
  eigenvalues    EBANDS =     -3350.72827477
  atomic energy  EATOM  =     25943.75796052
  Solvation  Ediel_sol  =         0.00000000
  ---------------------------------------------------
  free energy    TOTEN  =      -191.62583899 eV

  energy without entropy =     -191.62422079  energy(sigma->0) =     -191.62502989


--------------------------------------------------------------------------------------------------------




--------------------------------------- Iteration      1(  12)  ---------------------------------------


    POTLOK:  cpu time      0.0046: real time      0.0047
    SETDIJ:  cpu time      0.0018: real time      0.0018
     EDDAV:  cpu time      3.7522: real time      3.7684
       DOS:  cpu time      0.0081: real time      2.5071
[...]
     33     -28.6689      2.00000
     34     -26.0057      2.00000
     35     -25.9478      2.00000
     36     -25.8764      2.00000
     37     -25.8219      2.00000
     38     -25.7944      2.00000
     39     -25.7723      2.00000
     40     -25.7477      2.00000
     41     -25.6753      2.00000
     42     -25.6327      2.00000
     43     -25.2919      2.00000
     44     -25.0459      2.00000
     45     -24.9634      2.00000
     46     -24.9537      2.00000
     47     -24.9301      2.00000
     48     -24.9040      2.00000
     49     -24.8792      2.00000
     50     -24.8564      2.00000
     51     -24.8472      2.00000
     52     -24.8291      2.00000
     53     -24.7806      2.00000
     54     -24.5269      2.00000
     55     -21.6274      2.00000
     56     -21.6261      2.00000
     57     -21.6054      2.00000
     58     -21.5943      2.00000
     59     -21.5854      2.00000
     60     -21.5665      2.00000
     61       3.1576      2.00000
     62       3.5987      2.00000
     63       3.8852      2.00000
     64       4.1976      2.00000
     65       4.3028      2.00000
     66       4.7146      2.00000
     67       4.9551      2.00000
     68       5.4099      2.00000
     69       5.8942      2.00000
     70       5.9849      2.00000
     71       6.0654      2.00000
     72       6.0855      2.00000
     73       6.1141      2.00000
     74       6.1654      2.00000
     75       6.2133      2.00000
     76       6.2651      2.00000
     77       6.2847      2.00000
     78       6.3401      2.00000
     79       6.4505      2.00000
     80       6.5518      2.00000
     81       6.8002      2.00000
     82       6.8649      2.00000
     83       6.8945      2.00000
     84       6.9238      2.00000
     85       6.9780      2.00000
     86       6.9887      2.00000
     87       7.0117      2.00000
     88       7.0308      2.00000
     89       7.0494      2.00000
     90       7.0707      2.00000
     91       7.0901      2.00000
     92       7.1449      2.00000
     93       7.1500      2.00000
     94       7.1877      2.00000
     95       7.1909      2.00000
     96       7.2153      2.00000
     97       7.2935      2.00000
     98       7.3487      2.00000
     99       7.3707      2.00000
    100       7.4191      2.00000
    101       7.4828      2.00000
    102       7.5467      2.00000
    103       7.6067      2.00000
    104       7.6245      2.00000
    105       7.6617      2.00000
    106       7.7175      2.00000
    107       7.7829      2.00000
    108       8.1046      2.00000
    109      10.7490      0.00000
    110      10.8440      0.00000
    111      10.9566      0.00000
    112      11.0005      0.00000
    113      11.0713      0.00000
    114      11.1289      0.00000
    115      11.2040      0.00000
    116      11.2185      0.00000
    117      11.3516      0.00000
    118      11.3650      0.00000
    119      11.4114      0.00000
    120      11.4637      0.00000
    121      11.5453      0.00000
    122      11.6611      0.00000
    123      11.7030      0.00000
    124      11.7350      0.00000
    125      11.8068      0.00000
    126      11.8656      0.00000
    127      12.0020      0.00000
    128      12.0726      0.00000

 k-point    63 :       0.4000   -0.4000    0.4000
  band No.  band energies     occupation 
      1     -64.8367      2.00000
      2     -64.8267      2.00000
      3     -64.7974      2.00000
      4     -64.7666      2.00000
      5     -64.7639      2.00000
      6     -64.7275      2.00000
      7     -64.7247      2.00000
      8     -51.7635      2.00000
      9     -51.6619      2.00000
     10     -51.6562      2.00000
     11     -45.5306      2.00000
     12     -45.4998      2.00000
     13     -29.2621      2.00000
     14     -29.2286      2.00000
     15     -29.2199      2.00000
     16     -29.1853      2.00000
     17     -29.1647      2.00000
     18     -29.1195      2.00000
     19     -29.0715      2.00000
     20     -29.0212      2.00000
     21     -29.0054      2.00000
     22     -28.9760      2.00000
     23     -28.9540      2.00000
     24     -28.9398      2.00000
     25     -28.9276      2.00000
     26     -28.9168      2.00000
     27     -28.9031      2.00000
     28     -28.8568      2.00000
     29     -28.8225      2.00000
     30     -28.7844      2.00000
     31     -28.7670      2.00000
     32     -28.7417      2.00000
     33     -28.7074      2.00000
     34     -26.0054      2.00000
     35     -25.9469      2.00000
     36     -25.8766      2.00000
     37     -25.8207      2.00000
     38     -25.7964      2.00000
     39     -25.7713      2.00000
     40     -25.7476      2.00000
     41     -25.6762      2.00000
     42     -25.6325      2.00000
     43     -25.2341      2.00000
     44     -25.1560      2.00000
     45     -24.9578      2.00000
     46     -24.9487      2.00000
     47     -24.9460      2.00000
     48     -24.9074      2.00000
     49     -24.8759      2.00000
     50     -24.8568      2.00000
     51     -24.8456      2.00000
     52     -24.8221      2.00000
     53     -24.6754      2.00000
     54     -24.5827      2.00000
     55     -21.6269      2.00000
     56     -21.6242      2.00000
     57     -21.6160      2.00000
     58     -21.5951      2.00000
     59     -21.5876      2.00000
     60     -21.5554      2.00000
     61       3.1205      2.00000
     62       3.6992      2.00000
     63       3.8449      2.00000
     64       4.1550      2.00000
     65       4.4454      2.00000
     66       4.5798      2.00000
     67       4.9097      2.00000
     68       5.4490      2.00000
     69       5.9622      2.00000
     70       6.0135      2.00000
     71       6.0181      2.00000
     72       6.0808      2.00000
     73       6.1005      2.00000
     74       6.1341      2.00000
     75       6.1754      2.00000
     76       6.2960      2.00000
     77       6.3091      2.00000
     78       6.3848      2.00000
     79       6.4383      2.00000
     80       6.5380      2.00000
     81       6.8050      2.00000
     82       6.8635      2.00000
     83       6.8708      2.00000
     84       6.9222      2.00000
     85       6.9349      2.00000
     86       6.9796      2.00000
     87       7.0173      2.00000
     88       7.0268      2.00000
     89       7.0686      2.00000
     90       7.0839      2.00000
     91       7.0881      2.00000
     92       7.1384      2.00000
     93       7.1532      2.00000
     94       7.1842      2.00000
     95       7.1972      2.00000
     96       7.2337      2.00000
     97       7.3207      2.00000
     98       7.3703      2.00000
     99       7.3842      2.00000
    100       7.3980      2.00000
    101       7.4534      2.00000
    102       7.5169      2.00000
    103       7.6125      2.00000
    104       7.6308      2.00000
    105       7.6682      2.00000
    106       7.7268      2.00000
    107       7.7408      2.00000
    108       8.1497      2.00000
    109      10.7589      0.00000
    110      10.8660      0.00000
    111      10.9897      0.00000
    112      11.0092      0.00000
    113      11.0568      0.00000
    114      11.0899      0.00000
    115      11.1716      0.00000
    116      11.2486      0.00000
    117      11.3131      0.00000
    118      11.3544      0.00000
    119      11.4122      0.00000
    120      11.4720      0.00000
    121      11.5576      0.00000
    122      11.6161      0.00000
    123      11.6839      0.00000
    124      11.7641      0.00000
    125      11.8112      0.00000
    126      11.8884      0.00000
    127      11.9398      0.00000
    128      12.0428      0.00000


--------------------------------------------------------------------------------------------------------


 soft charge-density along one line, spin component           1
         0         1         2         3         4         5         6         7         8         9
 total charge-density along one line
 
 pseudopotential strength for first ion, spin component:           1
  5.853 -20.617  -0.000  -0.001   0.001   0.000   0.001  -0.001
-20.617   9.501  -0.000  -0.001   0.001   0.000   0.000  -0.000
 -0.000  -0.000  -9.933  -0.002  -0.002   6.230   0.002   0.002
 -0.001  -0.001  -0.002  -9.933   0.004   0.002   6.230  -0.004
  0.001   0.001  -0.002   0.004  -9.929   0.002  -0.004   6.227
  0.000   0.000   6.230   0.002   0.002   7.792  -0.001  -0.001
  0.001   0.000   0.002   6.230  -0.004  -0.001   7.792   0.003
 -0.001  -0.000   0.002  -0.004   6.227  -0.001   0.003   7.794
 -0.001  -0.001   0.001   0.000  -0.000  -0.001  -0.000   0.000
 -0.001  -0.001  -0.001  -0.000   0.000   0.001   0.000  -0.000
 -0.001  -0.000   0.000  -0.001  -0.000  -0.000   0.001   0.000
  0.003   0.001   0.000   0.001  -0.001  -0.000  -0.001   0.001
  0.001   0.000   0.000   0.000   0.000  -0.000  -0.000  -0.001
 -0.002  -0.001   0.001   0.000  -0.000  -0.001  -0.000   0.000
 -0.002  -0.001  -0.001  -0.000   0.000   0.001   0.000  -0.000
 -0.001  -0.000   0.000  -0.001  -0.000  -0.000   0.001   0.000
  0.004   0.001   0.000   0.001  -0.001  -0.000  -0.001   0.001
  0.002   0.000   0.000   0.000   0.001  -0.000  -0.000  -0.001
 total augmentation occupancy for first ion, spin component:           1
  1.995  -0.050  -0.000  -0.000   0.000  -0.000  -0.000   0.000  -0.007  -0.007  -0.001   0.009   0.002   0.006   0.006   0.001
 -0.050   1.276   0.000  -0.001   0.001  -0.000   0.001  -0.001  -0.015  -0.017  -0.015   0.031   0.028   0.002   0.002   0.005
 -0.000   0.000   1.996   0.000   0.000  -0.033  -0.001  -0.001   0.003  -0.003   0.000   0.000   0.000  -0.002   0.002  -0.000
 -0.000  -0.001   0.000   1.996  -0.000  -0.001  -0.033   0.001   0.000  -0.000  -0.003   0.003  -0.000  -0.000   0.000   0.002
  0.000   0.001   0.000  -0.000   1.996  -0.001   0.001  -0.034  -0.000   0.000  -0.001  -0.003   0.003   0.000  -0.000   0.001
 -0.000  -0.000  -0.033  -0.001  -0.001   0.070   0.002   0.001  -0.009   0.009  -0.000  -0.000   0.000   0.005  -0.005   0.000
 -0.000   0.001  -0.001  -0.033   0.001   0.002   0.070  -0.001  -0.000   0.000   0.003  -0.009   0.000   0.000  -0.000  -0.002
  0.000  -0.001  -0.001   0.001  -0.034   0.001  -0.001   0.074   0.000  -0.000   0.001   0.009  -0.002  -0.000   0.000  -0.001
 -0.007  -0.015   0.003   0.000  -0.000  -0.009  -0.000   0.000   3.386   0.080   0.039  -0.004   0.001  -1.435  -0.029  -0.017
 -0.007  -0.017  -0.003  -0.000   0.000   0.009   0.000  -0.000   0.080   3.401  -0.021  -0.008   0.037  -0.029  -1.437   0.009
 -0.001  -0.015   0.000  -0.003  -0.001  -0.000   0.003   0.001   0.039  -0.021   2.516   0.027  -0.028  -0.016   0.008  -1.145
  0.009   0.031   0.000   0.003  -0.003  -0.000  -0.009   0.009  -0.004  -0.008   0.027   3.377   0.047  -0.008  -0.007  -0.013
  0.002   0.028   0.000  -0.000   0.003   0.000   0.000  -0.002   0.001   0.037  -0.028   0.047   2.546  -0.000  -0.015   0.009
  0.006   0.002  -0.002  -0.000   0.000   0.005   0.000  -0.000  -1.435  -0.029  -0.016  -0.008  -0.000   0.620   0.011   0.007
  0.006   0.002   0.002   0.000  -0.000  -0.005  -0.000   0.000  -0.029  -1.437   0.008  -0.007  -0.015   0.011   0.619  -0.003
  0.001   0.005  -0.000   0.002   0.001   0.000  -0.002  -0.001  -0.017   0.009  -1.145  -0.013   0.009   0.007  -0.003   0.529
 -0.008  -0.014  -0.000  -0.002   0.002   0.000   0.005  -0.005  -0.008  -0.007  -0.012  -1.432  -0.022   0.007   0.007   0.006
 -0.002  -0.010  -0.000   0.000  -0.002  -0.000  -0.000   0.001  -0.000  -0.016   0.009  -0.023  -1.155  -0.000   0.006  -0.002


------------------------ aborting loop because EDIFF is reached ----------------------------------------


    CHARGE:  cpu time      0.0871: real time      0.0875
    FORLOC:  cpu time      0.0005: real time      0.0005
    FORNL :  cpu time      0.8198: real time      0.8224
    STRESS:  cpu time      1.0327: real time      1.0365
    FORCOR:  cpu time      0.0062: real time      0.0062
    FORHAR:  cpu time      0.0015: real time      0.0015
    MIXING:  cpu time      0.0006: real time      0.0006
    OFIELD:  cpu time      0.0000: real time      0.0000

  FORCE on cell =-STRESS in cart. coord.  units (eV):
  Direction    XX          YY          ZZ          XY          YZ          ZX
  --------------------------------------------------------------------------------------
  Alpha Z  1957.42503  1957.42503  1957.42503
  Ewald   -7330.51311 -7352.25348 -7352.25348    25.29219   -50.58439   -25.29219
  Hartree  1264.39105  1247.09813  1244.78147    22.42411   -44.51799   -25.20726
  E(xc)    -967.36129  -967.31593  -967.33225    -0.02472     0.05003     0.08849
  Local    1687.70652  1724.92473  1727.68731   -46.99328    92.08554    48.95394
  n-local  -310.57592  -308.23623  -308.19617     0.39668     1.82713    -0.11508
  augment   687.14204   687.13664   687.10836    -0.15569     0.58918     0.15450
  Kinetic  2982.61862  2981.87469  2981.49545    -0.83941     0.12384     0.92724
  Fock        0.00000     0.00000     0.00000     0.00000     0.00000     0.00000
  -------------------------------------------------------------------------------------
  Total     -29.16707   -29.34644   -29.28428     0.09989    -0.42666    -0.49038
  in kB    -164.03091  -165.03964  -164.69007     0.56175    -2.39948    -2.75781
  external pressure =     -164.59 kB  Pullay stress =        0.00 kB


 VOLUME and BASIS-vectors are now :
 -----------------------------------------------------------------------------
  energy-cutoff  :      250.00
  volume of cell :      284.89
      direct lattice vectors                 reciprocal lattice vectors
     6.580000000  0.000000000  0.000000000     0.151975684  0.000000000  0.000000000
     0.000000000  6.580000000  0.000000000     0.000000000  0.151975684  0.000000000
     0.000000000  0.000000000  6.580000000     0.000000000  0.000000000  0.151975684

  length of vectors
     6.580000000  6.580000000  6.580000000     0.151975684  0.151975684  0.151975684


 FORCES acting on ions
    electron-ion (+dipol)            ewald-force                    non-local-force                 convergence-correction
 -----------------------------------------------------------------------------------------------
   -.141E-01 -.615E-02 -.366E-02   0.142E-12 -.279E-13 0.622E-14   0.906E-01 0.132E-02 -.798E-01   0.232E-04 -.702E-04 -.468E-04
   0.148E-01 0.859E-02 0.641E-02   0.154E-12 -.243E-13 0.284E-13   -.928E-01 -.439E-02 0.824E-01   -.154E-04 0.708E-04 0.542E-04
   0.727E-01 0.164E-02 -.103E+00   -.117E-12 -.227E-12 -.855E-13   -.602E-01 -.243E-02 0.863E-01   0.909E-05 -.819E-04 0.456E-04
   -.704E-01 0.316E-01 0.461E-01   0.284E-13 0.853E-13 0.284E-13   0.542E-01 -.263E-01 -.399E-01   0.222E-04 -.552E-04 0.562E-04
   -.580E-01 -.295E-01 0.521E-01   -.142E-12 -.114E-12 0.000E+00   0.485E-01 0.262E-01 -.495E-01   0.255E-04 0.611E-04 0.514E-04
   0.457E-02 0.162E-01 0.142E-01   0.000E+00 -.284E-13 0.000E+00   0.331E-01 0.146E-01 0.245E-01   0.253E-04 0.634E-04 -.118E-04
   0.302E-01 -.296E-02 0.368E-01   0.567E-13 0.134E-13 -.284E-13   0.343E-01 0.658E-02 0.349E-01   0.439E-04 0.589E-04 0.695E-04
   -.224E-01 0.241E-02 -.431E-01   0.346E-13 0.144E-13 -.155E-13   -.409E-01 -.739E-02 -.293E-01   -.395E-04 -.551E-04 -.795E-04
   -.102E-01 -.182E-01 -.842E-02   -.284E-13 0.284E-13 -.568E-13   -.284E-01 -.129E-01 -.338E-01   -.366E-04 -.582E-04 0.226E-04
   0.136E-01 -.133E-02 0.176E-01   -.569E-13 -.137E-12 0.540E-13   -.159E-01 0.315E-02 -.662E-02   0.365E-05 0.784E-04 -.569E-04
   0.222E-01 0.777E-02 -.408E-04   0.114E-12 0.142E-12 0.853E-13   -.796E-02 -.503E-02 -.268E-02   -.133E-04 0.629E-04 -.396E-04
   -.189E-01 0.143E-01 0.951E-02   -.568E-13 0.114E-12 -.853E-13   0.857E-02 -.389E-02 -.978E-02   0.268E-04 -.709E-04 -.450E-04
   -.414E-02 0.217E-02 0.659E-02   -.562E-13 -.263E-13 -.293E-13   0.105E-01 -.129E-02 0.458E-02   -.150E-04 0.722E-04 -.736E-04
   0.112E-01 -.143E-01 0.188E-02   0.000E+00 0.142E-12 -.284E-13   -.829E-03 0.307E-02 -.168E-03   -.403E-04 0.684E-04 0.461E-04
   0.122E-01 -.712E-02 -.784E-02   -.568E-13 0.000E+00 0.284E-13   -.575E-02 0.438E-02 0.868E-02   -.236E-04 -.644E-04 -.388E-04
   0.146E-01 -.357E-02 -.145E-01   0.571E-13 0.852E-13 0.297E-15   -.248E-01 0.267E-02 -.465E-04   0.169E-04 -.805E-04 0.550E-04
 -----------------------------------------------------------------------------------------------
   -.213E-02 0.159E-02 0.102E-01   0.723E-13 0.399E-13 -.983E-13   0.212E-02 -.159E-02 -.102E-01   0.127E-04 -.241E-06 0.848E-05
 
 
 POSITION                                       TOTAL-FORCE (eV/Angst)
 -----------------------------------------------------------------------------------
      1.64500      1.64500      1.64500         0.076481     -0.004904     -0.083531
      4.93500      4.93500      4.93500        -0.078038      0.004271      0.088866
      4.93500      1.64500      4.93500         0.012537     -0.000870     -0.017006
      3.29000      3.29000      0.00000        -0.016165      0.005271      0.006274
      3.29000      0.00000      0.00000        -0.009493     -0.003207      0.002589
      3.29000      0.00000      3.29000         0.037654      0.030934      0.038654
      1.64500      4.93500      4.93500         0.064512      0.003676      0.071781
      4.93500      1.64500      1.64500        -0.063383     -0.005030     -0.072498
      0.00000      3.29000      0.00000        -0.038630     -0.031134     -0.042155
      1.64500      4.93500      1.64500        -0.002265      0.001895      0.010939
      0.00000      0.00000      3.29000         0.014270      0.002807     -0.002760
      3.29000      3.29000      3.29000        -0.010296      0.010315     -0.000313
      4.93500      4.93500      1.64500         0.006358      0.000954      0.011093
      0.00000      0.00000      0.00000         0.010330     -0.011195      0.001762
      0.00000      3.29000      3.29000         0.006381     -0.002799      0.000803
      1.64500      1.64500      4.93500        -0.010253     -0.000984     -0.014497
 -----------------------------------------------------------------------------------
    total drift:                               -0.000002     -0.000001     -0.000000


--------------------------------------------------------------------------------------------------------



  FREE ENERGIE OF THE ION-ELECTRON SYSTEM (eV)
  ---------------------------------------------------
  free  energy   TOTEN  =      -191.62430500 eV

  energy  without entropy=     -191.62267660  energy(sigma->0) =     -191.62349080
 


--------------------------------------------------------------------------------------------------------


    POTLOK:  cpu time      0.0062: real time      0.0095


--------------------------------------------------------------------------------------------------------


     LOOP+:  cpu time    155.2915: real time    170.9709
    4ORBIT:  cpu time      0.0000: real time      0.0000

 total amount of memory used by VASP MPI-rank0    48253. kBytes
=======================================================================

   base      :      30000. kBytes
   nonl-proj :       8332. kBytes
   fftplans  :        456. kBytes
   grid      :        919. kBytes
   one-center:         31. kBytes
   wavefun   :       8515. kBytes
 
  
  
 General timing and accounting informations for this job:
 ========================================================
  
                  Total CPU time used (sec):      158.728
                            User time (sec):      156.046
                          System time (sec):        2.682
                         Elapsed time (sec):      176.202
  
                   Maximum memory used (kb):       92712.
                   Average memory used (kb):          N/A
  
                          Minor page faults:         8711
                          Major page faults:            0
                 Voluntary context switches:          230
