 vasp.6.3.1 04May22 (build Jul 26 2022 04:02:40) complex                        
  
 executed on             LinuxIFC date 2023.11.30  11:41:14
 running on   48 total cores
 distrk:  each k-point on   48 cores,    1 groups
 distr:  one band on NCORE=  12 cores,    4 groups


--------------------------------------------------------------------------------------------------------


 INCAR:
   ISTART = 0
   NWRITE = 2
   PREC = Accurate
   ENCUT = 250
   GGA = PE
   NSW = 0
   ISIF = 2
   ISYM = 2
   NBLOCK = 1
   KBLOCK = 1
   IBRION = -1
   NELM = 80
   EDIFF = 1E-08
   EDIFFG = -0.01
   ALGO = Normal
   LDIAG = .TRUE.
   LREAL = .FALSE.
   ISMEAR = 0
   SIGMA = 0.02
   ICHARG = 2
   LPLANE = .TRUE.
   NPAR = 4
   LSCALU = .FALSE.
   NSIM = 4
   LWAVE = .FALSE.
   LCHARG = .FALSE.
   ICORELEVEL = 1

 POTCAR:    PAW_PBE Nb_sv 25May2007               
 POTCAR:    PAW_PBE Mo_sv 02Feb2006               
 POTCAR:    PAW_PBE Ta_pv 07Sep2000               
 POTCAR:    PAW_PBE W_sv 04Sep2015                
 POTCAR:    PAW_PBE Nb_sv 25May2007               
   SHA256 =  0e8fc07c9fcd1164cf2ade22d0399fd28f85e91cd773dfa6cf24839a48c95e24 Nb_sv/POTCAR          
   COPYR  = (c) Copyright 25May2007 Georg Kresse                                                    
   COPYR  = This file is part of the software VASP. Any use, copying, and all other rights are regul
   COPYR  = If you do not have a valid VASP license, you may not use, copy or distribute this file. 
   VRHFIN =Nb: 4p5s4d                                                                               
   LEXCH  = PE                                                                                      
   EATOM  =  1555.1913 eV,  114.3033 Ry                                                             
                                                                                                    
   TITEL  = PAW_PBE Nb_sv 25May2007                                                                 
   LULTRA =        F    use ultrasoft PP ?                                                          
   IUNSCR =        1    unscreen: 0-lin 1-nonlin 2-no                                               
   RPACOR =    1.800    partial core radius                                                         
   POMASS =   92.910; ZVAL   =   13.000    mass and valenz                                          
   RCORE  =    2.400    outmost cutoff radius                                                       
   RWIGS  =    2.400; RWIGS  =    1.270    wigner-seitz radius (au A)                               
   ENMAX  =  293.235; ENMIN  =  219.927 eV                                                          
   ICORE  =        3    local potential                                                             
   LCOR   =        T    correct aug charges                                                         
   LPAW   =        T    paw PP                                                                      
   EAUG   =  455.659                                                                                
   DEXC   =    0.000                                                                                
   RMAX   =    2.456    core radius for proj-oper                                                   
   RAUG   =    1.300    factor for augmentation sphere                                              
   RDEP   =    2.451    radius for radial grids                                                     
   RDEPT  =    1.956    core radius for aug-charge                                                  
                                                                                                    
   Atomic configuration                                                                             
   11 entries                                                                                       
     n  l   j            E        occ.                                                              
     1  0  0.50    -18805.2457   2.0000                                                             
     2  0  0.50     -2630.2869   2.0000                                                             
     2  1  1.50     -2348.4046   6.0000                                                             
     3  0  0.50      -438.8757   2.0000                                                             
     3  1  1.50      -346.7588   6.0000                                                             
     3  2  2.50      -196.2560  10.0000                                                             
     4  0  0.50       -58.3859   2.0000                                                             
     5  0  0.50        -3.9816   1.0000                                                             
     4  1  1.50       -34.5141   6.0000                                                             
     4  2  2.50        -3.0408   4.0000                                                             
     4  3  2.50        -1.3606   0.0000                                                             
   Description                                                                                      
     l       E           TYP  RCUT    TYP  RCUT                                                     
     0    -58.3859094     23  2.200                                                                 
     0     -3.9816262     23  2.200                                                                 
     1    -34.5140738     23  2.200                                                                 
     1     13.6058260     23  2.200                                                                 
     2     -3.0408010     23  2.200                                                                 
     2     -0.1283038     23  2.200                                                                 
     3     -1.3605826     23  2.400                                                                 
  local pseudopotential read in
  partial core-charges read in
  partial kinetic energy density read in
  atomic valenz-charges read in
  non local Contribution for L=           0  read in
    real space projection operators read in
  non local Contribution for L=           0  read in
    real space projection operators read in
  non local Contribution for L=           1  read in
    real space projection operators read in
  non local Contribution for L=           1  read in
    real space projection operators read in
  non local Contribution for L=           2  read in
    real space projection operators read in
  non local Contribution for L=           2  read in
    real space projection operators read in
    PAW grid and wavefunctions read in
 
   number of l-projection  operators is LMAX  =           6
   number of lm-projection operators is LMMAX =          18
 
 POTCAR:    PAW_PBE Mo_sv 02Feb2006               
   SHA256 =  2731df97e41766cc617548c5a8267718fdef1f509ac6bafa01e745abea2bdfaa Mo_sv/POTCAR          
   COPYR  = (c) Copyright 02Feb2006 Georg Kresse                                                    
   COPYR  = This file is part of the software VASP. Any use, copying, and all other rights are regul
   COPYR  = If you do not have a valid VASP license, you may not use, copy or distribute this file. 
   VRHFIN =Mo: 4p5s4d                                                                               
   LEXCH  = PE                                                                                      
   EATOM  =  1862.2866 eV,  136.8742 Ry                                                             
                                                                                                    
   TITEL  = PAW_PBE Mo_sv 02Feb2006                                                                 
   LULTRA =        F    use ultrasoft PP ?                                                          
   IUNSCR =        1    unscreen: 0-lin 1-nonlin 2-no                                               
   RPACOR =    2.200    partial core radius                                                         
   POMASS =   95.940; ZVAL   =   14.000    mass and valenz                                          
   RCORE  =    2.500    outmost cutoff radius                                                       
   RWIGS  =    2.750; RWIGS  =    1.455    wigner-seitz radius (au A)                               
   ENMAX  =  242.676; ENMIN  =  182.007 eV                                                          
   ICORE  =        3    local potential                                                             
   LCOR   =        T    correct aug charges                                                         
   LPAW   =        T    paw PP                                                                      
   EAUG   =  446.014                                                                                
   DEXC   =    0.000                                                                                
   RMAX   =    2.563    core radius for proj-oper                                                   
   RAUG   =    1.300    factor for augmentation sphere                                              
   RDEP   =    2.641    radius for radial grids                                                     
   RDEPT  =    2.031    core radius for aug-charge                                                  
                                                                                                    
   Atomic configuration                                                                             
   11 entries                                                                                       
     n  l   j            E        occ.                                                              
     1  0  0.50    -19819.0341   2.0000                                                             
     2  0  0.50     -2799.0127   2.0000                                                             
     2  1  1.50     -2502.0276   6.0000                                                             
     3  0  0.50      -476.4449   2.0000                                                             
     3  1  1.50      -379.1496   6.0000                                                             
     3  2  2.50      -220.9367  10.0000                                                             
     4  0  0.50       -64.3378   2.0000                                                             
     5  0  0.50        -4.0862   1.0000                                                             
     4  1  1.50       -38.4773   6.0000                                                             
     4  2  2.50        -3.7535   5.0000                                                             
     4  3  2.50        -1.3606   0.0000                                                             
   Description                                                                                      
     l       E           TYP  RCUT    TYP  RCUT                                                     
     0    -64.3377829     23  2.100                                                                 
     0     -4.0861640     23  2.400                                                                 
     1    -38.4772993     23  2.100                                                                 
     1     13.6058260     23  2.100                                                                 
     2     -3.7534941     23  2.400                                                                 
     2     -5.1140767     23  2.400                                                                 
     3     -4.0817478     23  2.500                                                                 
  local pseudopotential read in
  partial core-charges read in
  partial kinetic energy density read in
  atomic valenz-charges read in
  non local Contribution for L=           0  read in
    real space projection operators read in
  non local Contribution for L=           0  read in
    real space projection operators read in
  non local Contribution for L=           1  read in
    real space projection operators read in
  non local Contribution for L=           1  read in
    real space projection operators read in
  non local Contribution for L=           2  read in
    real space projection operators read in
  non local Contribution for L=           2  read in
    real space projection operators read in
    PAW grid and wavefunctions read in
 
   number of l-projection  operators is LMAX  =           6
   number of lm-projection operators is LMMAX =          18
 
 POTCAR:    PAW_PBE Ta_pv 07Sep2000               
   SHA256 =  00d0a14a36c127416459414afb8617d9754996fffa60a2465888e660b20a452f Ta_pv/POTCAR          
   COPYR  = (c) Copyright 07Sep2000 Georg Kresse                                                    
   COPYR  = This file is part of the software VASP. Any use, copying, and all other rights are regul
   COPYR  = If you do not have a valid VASP license, you may not use, copy or distribute this file. 
   VRHFIN =Ta:  5p6s5d                                                                              
   LEXCH  = PE                                                                                      
   EATOM  =  1047.1984 eV,   76.9669 Ry                                                             
                                                                                                    
   TITEL  = PAW_PBE Ta_pv 07Sep2000                                                                 
   LULTRA =        F    use ultrasoft PP ?                                                          
   IUNSCR =        1    unscreen: 0-lin 1-nonlin 2-no                                               
   RPACOR =    2.330    partial core radius                                                         
   POMASS =  180.948; ZVAL   =   11.000    mass and valenz                                          
   RCORE  =    2.500    outmost cutoff radius                                                       
   RWIGS  =    2.840; RWIGS  =    1.503    wigner-seitz radius (au A)                               
   ENMAX  =  223.667; ENMIN  =  167.750 eV                                                          
   RCLOC  =    2.205    cutoff for local pot                                                        
   LCOR   =        T    correct aug charges                                                         
   LPAW   =        T    paw PP                                                                      
   EAUG   =  377.421                                                                                
   DEXC   =    0.000                                                                                
   RMAX   =    2.551    core radius for proj-oper                                                   
   RAUG   =    1.300    factor for augmentation sphere                                              
   RDEP   =    2.526    radius for radial grids                                                     
   RDEPT  =    2.132    core radius for aug-charge                                                  
                                                                                                    
   Atomic configuration                                                                             
   15 entries                                                                                       
     n  l   j            E        occ.                                                              
     1  0  0.50    -67341.2801   2.0000                                                             
     2  0  0.50    -11566.9369   2.0000                                                             
     2  1  1.50    -10134.1175   6.0000                                                             
     3  0  0.50     -2648.5614   2.0000                                                             
     3  1  1.50     -2222.6006   6.0000                                                             
     3  2  2.50     -1726.3114  10.0000                                                             
     4  0  0.50      -538.6957   2.0000                                                             
     4  1  1.50      -399.0125   6.0000                                                             
     4  2  2.50      -220.3955  10.0000                                                             
     4  3  3.50       -23.0371  14.0000                                                             
     5  0  0.50       -71.2900   2.0000                                                             
     5  1  1.50       -37.8224   6.0000                                                             
     5  2  2.50        -2.6455   4.0000                                                             
     6  0  0.50        -4.9623   1.0000                                                             
     5  3  2.50        -1.3606   0.0000                                                             
   Description                                                                                      
     l       E           TYP  RCUT    TYP  RCUT                                                     
     1    -37.8224449     23  2.500                                                                 
     1      1.3605826     23  2.500                                                                 
     2     -2.6454718     23  2.500                                                                 
     2     -0.6258570     23  2.500                                                                 
     0     -4.9622674     23  2.500                                                                 
     0      4.7531427     23  2.500                                                                 
  local pseudopotential read in
  partial core-charges read in
  partial kinetic energy density read in
  atomic valenz-charges read in
  non local Contribution for L=           1  read in
    real space projection operators read in
  non local Contribution for L=           1  read in
    real space projection operators read in
  non local Contribution for L=           2  read in
    real space projection operators read in
  non local Contribution for L=           2  read in
    real space projection operators read in
  non local Contribution for L=           0  read in
    real space projection operators read in
  non local Contribution for L=           0  read in
    real space projection operators read in
    PAW grid and wavefunctions read in
 
   number of l-projection  operators is LMAX  =           6
   number of lm-projection operators is LMMAX =          18
 
 POTCAR:    PAW_PBE W_sv 04Sep2015                
   SHA256 =  931c2d770f65867ef30f3db3421922900fc0890ebac5c3e12f63b6a2064023d7 W_sv/POTCAR           
   COPYR  = (c) Copyright 04Sep2015 Georg Kresse                                                    
   COPYR  = This file is part of the software VASP. Any use, copying, and all other rights are regul
   COPYR  = If you do not have a valid VASP license, you may not use, copy or distribute this file. 
   VRHFIN =W : 5p6s5d                                                                               
   LEXCH  = PE                                                                                      
   EATOM  =  1865.5791 eV,  137.1162 Ry                                                             
                                                                                                    
   TITEL  = PAW_PBE W_sv 04Sep2015                                                                  
   LULTRA =        F    use ultrasoft PP ?                                                          
   IUNSCR =        1    unscreen: 0-lin 1-nonlin 2-no                                               
   RPACOR =    2.330    partial core radius                                                         
   POMASS =  183.850; ZVAL   =   14.000    mass and valenz                                          
   RCORE  =    2.500    outmost cutoff radius                                                       
   RWIGS  =    2.750; RWIGS  =    1.455    wigner-seitz radius (au A)                               
   ENMAX  =  223.057; ENMIN  =  167.293 eV                                                          
   ICORE  =        3    local potential                                                             
   LCOR   =        T    correct aug charges                                                         
   LPAW   =        T    paw PP                                                                      
   EAUG   =  373.438                                                                                
   DEXC   =    0.000                                                                                
   RMAX   =    2.565    core radius for proj-oper                                                   
   RAUG   =    1.300    factor for augmentation sphere                                              
   RDEP   =    2.539    radius for radial grids                                                     
   RDEPT  =    2.126    core radius for aug-charge                                                  
                                                                                                    
   Atomic configuration                                                                             
   15 entries                                                                                       
     n  l   j            E        occ.                                                              
     1  0  0.50    -69465.5834   2.0000                                                             
     2  0  0.50    -11986.2640   2.0000                                                             
     2  1  1.50    -10479.8613   6.0000                                                             
     3  0  0.50     -2759.0756   2.0000                                                             
     3  1  1.50     -2313.1855   6.0000                                                             
     3  2  2.50     -1801.1183  10.0000                                                             
     4  0  0.50      -567.6789   2.0000                                                             
     4  1  1.50      -421.4692   6.0000                                                             
     4  2  2.50      -236.3471  10.0000                                                             
     4  3  3.50       -31.2665  14.0000                                                             
     5  0  0.50       -77.1084   2.0000                                                             
     6  0  0.50        -5.1438   1.0000                                                             
     5  1  1.50       -41.3856   6.0000                                                             
     5  2  2.50        -3.3185   5.0000                                                             
     5  3  2.50        -1.3606   0.0000                                                             
   Description                                                                                      
     l       E           TYP  RCUT    TYP  RCUT                                                     
     0    -77.1084470     23  2.100                                                                 
     0     -5.1437956     23  2.300                                                                 
     1    -41.3855615     23  2.500                                                                 
     1     -2.7211652     23  2.500                                                                 
     2     -3.3185025     23  2.500                                                                 
     2     -1.5965151     23  2.500                                                                 
     3     -1.3605826     23  2.500                                                                 
  local pseudopotential read in
  partial core-charges read in
  partial kinetic energy density read in
  kinetic energy density of atom read in
  atomic valenz-charges read in
  non local Contribution for L=           0  read in
    real space projection operators read in
  non local Contribution for L=           0  read in
    real space projection operators read in
  non local Contribution for L=           1  read in
    real space projection operators read in
  non local Contribution for L=           1  read in
    real space projection operators read in
  non local Contribution for L=           2  read in
    real space projection operators read in
  non local Contribution for L=           2  read in
    real space projection operators read in
    PAW grid and wavefunctions read in
 
   number of l-projection  operators is LMAX  =           6
   number of lm-projection operators is LMMAX =          18
 
 -----------------------------------------------------------------------------
|                                                                             |
|               ----> ADVICE to this user running VASP <----                  |
|                                                                             |
|     You have a (more or less) 'large supercell' and for larger cells it     |
|     might be more efficient to use real-space projection operators.         |
|     Therefore, try LREAL= Auto in the INCAR file.                           |
|     Mind: For very accurate calculation, you might also keep the            |
|     reciprocal projection scheme (i.e. LREAL=.FALSE.).                      |
|                                                                             |
 -----------------------------------------------------------------------------

  PAW_PBE Nb_sv 25May2007               :
 energy of atom  1       EATOM=-1555.1913
 kinetic energy error for atom=    0.2155 (will be added to EATOM!!)
  PAW_PBE Mo_sv 02Feb2006               :
 energy of atom  2       EATOM=-1862.2866
 kinetic energy error for atom=    0.1102 (will be added to EATOM!!)
  PAW_PBE Ta_pv 07Sep2000               :
 energy of atom  3       EATOM=-1047.1984
 kinetic energy error for atom=    0.0394 (will be added to EATOM!!)
  PAW_PBE W_sv 04Sep2015                :
 energy of atom  4       EATOM=-1865.5791
 kinetic energy error for atom=    0.0589 (will be added to EATOM!!)
 
 
 POSCAR: Nb-Mo-Ta-W alloy
  positions in direct lattice
  No initial velocities read in
 exchange correlation table for  LEXCH =        8
   RHO(1)=    0.500       N(1)  =     2000
   RHO(2)=  100.500       N(2)  =     4000
 


--------------------------------------------------------------------------------------------------------


 ion  position               nearest neighbor table
   1  0.500  0.000  0.000-  12 2.85  13 2.85  16 2.85  21 2.85  25 2.85  27 2.85  30 2.85  31 2.85
                            22 3.29  22 3.29
   2  0.750  0.000  0.000-   4 2.85   5 2.85  11 2.85  13 2.85  16 2.85  18 2.85  30 2.85  31 2.85
                            19 3.29  19 3.29
   3  0.750  0.500  0.500-   4 2.85   5 2.85  11 2.85  13 2.85  16 2.85  18 2.85  30 2.85  31 2.85
                            17 3.29  19 3.29  19 3.29
   4  0.875  0.750  0.750-   2 2.85   3 2.85   7 2.85   9 2.85  15 2.85  17 2.85  19 2.85  26 2.85
                            18 3.29  18 3.29
   5  0.875  0.250  0.250-   2 2.85   3 2.85   7 2.85   9 2.85  15 2.85  17 2.85  19 2.85  26 2.85
                            18 3.29   8 3.29  11 3.29  30 3.29  11 3.29  18 3.29
   6  0.125  0.750  0.750-   9 2.85  10 2.85  15 2.85  17 2.85  20 2.85  23 2.85  26 2.85  28 2.85
                            25 3.29  14 3.29  24 3.29  24 3.29  14 3.29
   7  0.750  0.000  0.500-   4 2.85   5 2.85  11 2.85  13 2.85  16 2.85  18 2.85  30 2.85  31 2.85
                            15 3.29  22 3.29
   8  0.125  0.250  0.250-   9 2.85  10 2.85  15 2.85  17 2.85  20 2.85  23 2.85  26 2.85  28 2.85
                            24 3.29   5 3.29  27 3.29  14 3.29  14 3.29  24 3.29
   9  0.000  0.500  0.000-   4 2.85   5 2.85   6 2.85   8 2.85  11 2.85  14 2.85  18 2.85  24 2.85
                            19 3.29  20 3.29  17 3.29  26 3.29  17 3.29  26 3.29
  10  0.250  0.000  0.000-   6 2.85   8 2.85  12 2.85  14 2.85  21 2.85  24 2.85  25 2.85  27 2.85
                            26 3.29  20 3.29  28 3.29  28 3.29  20 3.29
  11  0.875  0.250  0.750-   2 2.85   3 2.85   7 2.85   9 2.85  15 2.85  17 2.85  19 2.85  26 2.85
                            14 3.29   5 3.29  16 3.29   5 3.29
  12  0.375  0.250  0.750-   1 2.85  10 2.85  20 2.85  22 2.85  23 2.85  28 2.85  29 2.85  32 2.85
                            27 3.29  16 3.29  14 3.29  25 3.29  27 3.29  25 3.29
  13  0.625  0.750  0.750-   1 2.85   2 2.85   3 2.85   7 2.85  19 2.85  22 2.85  29 2.85  32 2.85
                            16 3.29  31 3.29  25 3.29  31 3.29  16 3.29
  14  0.125  0.250  0.750-   9 2.85  10 2.85  15 2.85  17 2.85  20 2.85  23 2.85  26 2.85  28 2.85
                            11 3.29  12 3.29   6 3.29   8 3.29   8 3.29   6 3.29
  15  0.000  0.000  0.500-   4 2.85   5 2.85   6 2.85   8 2.85  11 2.85  14 2.85  18 2.85  24 2.85
                             7 3.29  17 3.29  26 3.29  28 3.29  26 3.29  17 3.29
  16  0.625  0.250  0.750-   1 2.85   2 2.85   3 2.85   7 2.85  19 2.85  22 2.85  29 2.85  32 2.85
                            12 3.29  13 3.29  30 3.29  11 3.29  30 3.29  13 3.29
  17  0.000  0.500  0.500-   4 2.85   5 2.85   6 2.85   8 2.85  11 2.85  14 2.85  18 2.85  24 2.85
                            15 3.29   3 3.29  23 3.29   9 3.29   9 3.29  15 3.29
  18  0.875  0.750  0.250-   2 2.85   3 2.85   7 2.85   9 2.85  15 2.85  17 2.85  19 2.85  26 2.85
                             4 3.29  24 3.29   5 3.29  31 3.29   4 3.29   5 3.29
  19  0.750  0.500  0.000-   4 2.85   5 2.85  11 2.85  13 2.85  16 2.85  18 2.85  30 2.85  31 2.85
                             2 3.29   3 3.29   9 3.29  32 3.29   3 3.29   2 3.29
  20  0.250  0.500  0.000-   6 2.85   8 2.85  12 2.85  14 2.85  21 2.85  24 2.85  25 2.85  27 2.85
                            10 3.29   9 3.29  23 3.29  32 3.29  23 3.29  10 3.29
  21  0.375  0.750  0.250-   1 2.85  10 2.85  20 2.85  22 2.85  23 2.85  28 2.85  29 2.85  32 2.85
                            24 3.29  25 3.29  31 3.29  27 3.29  25 3.29  27 3.29
  22  0.500  0.000  0.500-  12 2.85  13 2.85  16 2.85  21 2.85  25 2.85  27 2.85  30 2.85  31 2.85
                            28 3.29  29 3.29   1 3.29   7 3.29   1 3.29  29 3.29
  23  0.250  0.500  0.500-   6 2.85   8 2.85  12 2.85  14 2.85  21 2.85  24 2.85  25 2.85  27 2.85
                            17 3.29  20 3.29  28 3.29  29 3.29  20 3.29  28 3.29
  24  0.125  0.750  0.250-   9 2.85  10 2.85  15 2.85  17 2.85  20 2.85  23 2.85  26 2.85  28 2.85
                            21 3.29   8 3.29  18 3.29   6 3.29   6 3.29   8 3.29
  25  0.375  0.750  0.750-   1 2.85  10 2.85  20 2.85  22 2.85  23 2.85  28 2.85  29 2.85  32 2.85
                            13 3.29   6 3.29  21 3.29  12 3.29  21 3.29  12 3.29
  26  0.000  0.000  0.000-   4 2.85   5 2.85   6 2.85   8 2.85  11 2.85  14 2.85  18 2.85  24 2.85
                            15 3.29   9 3.29  10 3.29  15 3.29   9 3.29
  27  0.375  0.250  0.250-   1 2.85  10 2.85  20 2.85  22 2.85  23 2.85  28 2.85  29 2.85  32 2.85
                            21 3.29  12 3.29  30 3.29   8 3.29  12 3.29  21 3.29
  28  0.250  0.000  0.500-   6 2.85   8 2.85  12 2.85  14 2.85  21 2.85  24 2.85  25 2.85  27 2.85
                            23 3.29  15 3.29  10 3.29  22 3.29  10 3.29  23 3.29
  29  0.500  0.500  0.500-  12 2.85  13 2.85  16 2.85  21 2.85  25 2.85  27 2.85  30 2.85  31 2.85
                            22 3.29  23 3.29  32 3.29  32 3.29  22 3.29
  30  0.625  0.250  0.250-   1 2.85   2 2.85   3 2.85   7 2.85  19 2.85  22 2.85  29 2.85  32 2.85
                            27 3.29   5 3.29  31 3.29  16 3.29  16 3.29  31 3.29
  31  0.625  0.750  0.250-   1 2.85   2 2.85   3 2.85   7 2.85  19 2.85  22 2.85  29 2.85  32 2.85
                            18 3.29  13 3.29  30 3.29  21 3.29  13 3.29  30 3.29
  32  0.500  0.500  0.000-  12 2.85  13 2.85  16 2.85  21 2.85  25 2.85  27 2.85  30 2.85  31 2.85
                            29 3.29  20 3.29  19 3.29  29 3.29
 
  LATTYP: Found a simple tetragonal cell.
 ALAT       =     6.5800000000
 C/A-ratio  =     2.0000000000
  
  Lattice vectors:
  
 A1 = (   0.0000000000,   6.5800000000,   0.0000000000)
 A2 = (   0.0000000000,   0.0000000000,   6.5800000000)
 A3 = (  13.1600000000,   0.0000000000,   0.0000000000)


Analysis of symmetry for initial positions (statically):
=====================================================================
 Subroutine PRICEL returns:
 Original cell was already a primitive cell.
 

 Routine SETGRP: Setting up the symmetry group for a 
 simple tetragonal supercell.


 Subroutine GETGRP returns: Found  1 space group operations
 (whereof  1 operations were pure point group operations)
 out of a pool of 16 trial point group operations.


The static configuration has the point symmetry C_1 .


Analysis of symmetry for dynamics (positions and initial velocities):
=====================================================================
 Subroutine PRICEL returns:
 Original cell was already a primitive cell.
 

 Routine SETGRP: Setting up the symmetry group for a 
 simple tetragonal supercell.


 Subroutine GETGRP returns: Found  1 space group operations
 (whereof  1 operations were pure point group operations)
 out of a pool of 16 trial point group operations.


The dynamic configuration has the point symmetry C_1 .


 Subroutine INISYM returns: Found  1 space group operations
 (whereof  1 operations are pure point group operations),
 and found     1 'primitive' translations


----------------------------------------------------------------------------------------

                                     Primitive cell                                     

  volume of cell :     569.7806

  direct lattice vectors                    reciprocal lattice vectors
    13.160000000  0.000000000  0.000000000     0.075987842  0.000000000  0.000000000
     0.000000000  6.580000000  0.000000000     0.000000000  0.151975684  0.000000000
     0.000000000  0.000000000  6.580000000     0.000000000  0.000000000  0.151975684

  length of vectors
    13.160000000  6.580000000  6.580000000     0.075987842  0.151975684  0.151975684

  position of ions in fractional coordinates (direct lattice)
     0.500000000  0.000000000  0.000000000
     0.750000000  0.000000000  0.000000000
     0.750000000  0.500000000  0.500000000
     0.875000000  0.750000000  0.750000000
     0.875000000  0.250000000  0.250000000
     0.125000000  0.750000000  0.750000000
     0.750000000  0.000000000  0.500000000
     0.125000000  0.250000000  0.250000000
     0.000000000  0.500000000  0.000000000
     0.250000000  0.000000000  0.000000000
     0.875000000  0.250000000  0.750000000
     0.375000000  0.250000000  0.750000000
     0.625000000  0.750000000  0.750000000
     0.125000000  0.250000000  0.750000000
     0.000000000  0.000000000  0.500000000
     0.625000000  0.250000000  0.750000000
     0.000000000  0.500000000  0.500000000
     0.875000000  0.750000000  0.250000000
     0.750000000  0.500000000  0.000000000
     0.250000000  0.500000000  0.000000000
     0.375000000  0.750000000  0.250000000
     0.500000000  0.000000000  0.500000000
     0.250000000  0.500000000  0.500000000
     0.125000000  0.750000000  0.250000000
     0.375000000  0.750000000  0.750000000
     0.000000000  0.000000000  0.000000000
     0.375000000  0.250000000  0.250000000
     0.250000000  0.000000000  0.500000000
     0.500000000  0.500000000  0.500000000
     0.625000000  0.250000000  0.250000000
     0.625000000  0.750000000  0.250000000
     0.500000000  0.500000000  0.000000000

  ion indices of the primitive-cell ions
   primitive index   ion index
                 1           1
                 2           2
                 3           3
                 4           4
                 5           5
                 6           6
                 7           7
                 8           8
                 9           9
                10          10
                11          11
                12          12
                13          13
                14          14
                15          15
                16          16
                17          17
                18          18
                19          19
                20          20
                21          21
                22          22
                23          23
                24          24
                25          25
                26          26
                27          27
                28          28
                29          29
                30          30
                31          31
                32          32

----------------------------------------------------------------------------------------

 
 
 KPOINTS: K-Spacing Value to Generate K-Mesh: 0.03

Automatic generation of k-mesh.
 Grid dimensions read from file:
 generate k-points for:    3    5    5

 Generating k-lattice:

  Cartesian coordinates                     Fractional coordinates (reciprocal lattice)
     0.025329281  0.000000000  0.000000000     0.333333333  0.000000000  0.000000000
     0.000000000  0.030395137  0.000000000     0.000000000  0.200000000  0.000000000
     0.000000000  0.000000000  0.030395137     0.000000000  0.000000000  0.200000000

  Length of vectors
     0.025329281  0.030395137  0.030395137

  Shift w.r.t. Gamma in fractional coordinates (k-lattice)
     0.000000000  0.000000000  0.000000000

 
 Subroutine IBZKPT returns following result:
 ===========================================
 
 Found     38 irreducible k-points:
 
 Following reciprocal coordinates:
            Coordinates               Weight
  0.000000  0.000000  0.000000      1.000000
  0.333333  0.000000  0.000000      2.000000
  0.000000  0.200000  0.000000      2.000000
  0.000000  0.000000  0.200000      2.000000
  0.333333  0.200000  0.000000      2.000000
  0.333333  0.000000  0.200000      2.000000
  0.333333 -0.200000  0.000000      2.000000
  0.333333  0.000000 -0.200000      2.000000
  0.000000  0.400000  0.000000      2.000000
  0.000000  0.000000  0.400000      2.000000
  0.333333  0.400000  0.000000      2.000000
  0.333333  0.000000  0.400000      2.000000
  0.333333 -0.400000  0.000000      2.000000
  0.333333  0.000000 -0.400000      2.000000
  0.000000  0.200000  0.200000      2.000000
  0.000000 -0.200000  0.200000      2.000000
  0.333333  0.200000  0.200000      2.000000
  0.333333 -0.200000  0.200000      2.000000
  0.333333 -0.200000 -0.200000      2.000000
  0.333333  0.200000 -0.200000      2.000000
  0.000000  0.400000  0.200000      2.000000
  0.000000 -0.200000  0.400000      2.000000
  0.000000 -0.400000  0.200000      2.000000
  0.000000  0.200000  0.400000      2.000000
  0.333333  0.400000  0.200000      2.000000
  0.333333 -0.200000  0.400000      2.000000
  0.333333 -0.400000 -0.200000      2.000000
  0.333333  0.200000 -0.400000      2.000000
 -0.333333 -0.400000  0.200000      2.000000
 -0.333333  0.200000  0.400000      2.000000
 -0.333333  0.400000 -0.200000      2.000000
 -0.333333 -0.200000 -0.400000      2.000000
  0.000000  0.400000  0.400000      2.000000
  0.000000 -0.400000  0.400000      2.000000
  0.333333  0.400000  0.400000      2.000000
  0.333333 -0.400000  0.400000      2.000000
  0.333333 -0.400000 -0.400000      2.000000
  0.333333  0.400000 -0.400000      2.000000
 
 Following cartesian coordinates:
            Coordinates               Weight
  0.000000  0.000000  0.000000      1.000000
  0.025329  0.000000  0.000000      2.000000
  0.000000  0.030395  0.000000      2.000000
  0.000000  0.000000  0.030395      2.000000
  0.025329  0.030395  0.000000      2.000000
  0.025329  0.000000  0.030395      2.000000
  0.025329 -0.030395  0.000000      2.000000
  0.025329  0.000000 -0.030395      2.000000
  0.000000  0.060790  0.000000      2.000000
  0.000000  0.000000  0.060790      2.000000
  0.025329  0.060790  0.000000      2.000000
  0.025329  0.000000  0.060790      2.000000
  0.025329 -0.060790  0.000000      2.000000
  0.025329  0.000000 -0.060790      2.000000
  0.000000  0.030395  0.030395      2.000000
  0.000000 -0.030395  0.030395      2.000000
  0.025329  0.030395  0.030395      2.000000
  0.025329 -0.030395  0.030395      2.000000
  0.025329 -0.030395 -0.030395      2.000000
  0.025329  0.030395 -0.030395      2.000000
  0.000000  0.060790  0.030395      2.000000
  0.000000 -0.030395  0.060790      2.000000
  0.000000 -0.060790  0.030395      2.000000
  0.000000  0.030395  0.060790      2.000000
  0.025329  0.060790  0.030395      2.000000
  0.025329 -0.030395  0.060790      2.000000
  0.025329 -0.060790 -0.030395      2.000000
  0.025329  0.030395 -0.060790      2.000000
 -0.025329 -0.060790  0.030395      2.000000
 -0.025329  0.030395  0.060790      2.000000
 -0.025329  0.060790 -0.030395      2.000000
 -0.025329 -0.030395 -0.060790      2.000000
  0.000000  0.060790  0.060790      2.000000
  0.000000 -0.060790  0.060790      2.000000
  0.025329  0.060790  0.060790      2.000000
  0.025329 -0.060790  0.060790      2.000000
  0.025329 -0.060790 -0.060790      2.000000
  0.025329  0.060790 -0.060790      2.000000
 


--------------------------------------------------------------------------------------------------------




 Dimension of arrays:
   k-points           NKPTS =     38   k-points in BZ     NKDIM =     38   number of bands    NBANDS=    252
   number of dos      NEDOS =    301   number of ions     NIONS =     32
   non local maximal  LDIM  =      6   non local SUM 2l+1 LMDIM =     18
   total plane-waves  NPLWV =  90720
   max r-space proj   IRMAX =      1   max aug-charges    IRDMAX=   9287
   dimension x,y,z NGX =    70 NGY =   36 NGZ =   36
   dimension x,y,z NGXF=   140 NGYF=   72 NGZF=   72
   support grid    NGXF=   140 NGYF=   72 NGZF=   72
   ions per type =               4  11   9   8
   NGX,Y,Z   is equivalent  to a cutoff of   8.84,  9.10,  9.10 a.u.
   NGXF,Y,Z  is equivalent  to a cutoff of  17.69, 18.19, 18.19 a.u.

 SYSTEM =  unknown system                          
 POSCAR =  Nb-Mo-Ta-W alloy                        

 Startparameter for this run:
   NWRITE =      2    write-flag & timer
   PREC   = accura    normal or accurate (medium, high low for compatibility)
   ISTART =      0    job   : 0-new  1-cont  2-samecut
   ICHARG =      2    charge: 1-file 2-atom 10-const
   ISPIN  =      1    spin polarized calculation?
   LNONCOLLINEAR =      F non collinear calculations
   LSORBIT =      F    spin-orbit coupling
   INIWAV =      1    electr: 0-lowe 1-rand  2-diag
   LASPH  =      F    aspherical Exc in radial PAW
 Electronic Relaxation 1
   ENCUT  =  250.0 eV  18.37 Ry    4.29 a.u.  16.97  8.48  8.48*2*pi/ulx,y,z
   ENINI  =  250.0     initial cutoff
   ENAUG  =  455.7 eV  augmentation charge cutoff
   NELM   =     80;   NELMIN=  2; NELMDL= -5     # of ELM steps 
   EDIFF  = 0.1E-07   stopping-criterion for ELM
   LREAL  =      F    real-space projection
   NLSPLINE    = F    spline interpolate recip. space projectors
   LCOMPAT=      F    compatible to vasp.4.4
   GGA_COMPAT  = T    GGA compatible to vasp.4.4-vasp.4.6
   LMAXPAW     = -100 max onsite density
   LMAXMIX     =    2 max onsite mixed and CHGCAR
   VOSKOWN=      0    Vosko Wilk Nusair interpolation
   ROPT   =    0.00000   0.00000   0.00000   0.00000
 Ionic relaxation
   EDIFFG = -.1E-01   stopping-criterion for IOM
   NSW    =      0    number of steps for IOM
   NBLOCK =      1;   KBLOCK =      1    inner block; outer block 
   IBRION =     -1    ionic relax: 0-MD 1-quasi-New 2-CG
   NFREE  =      0    steps in history (QN), initial steepest desc. (CG)
   ISIF   =      2    stress and relaxation
   IWAVPR =     10    prediction:  0-non 1-charg 2-wave 3-comb
   ISYM   =      2    0-nonsym 1-usesym 2-fastsym
   LCORR  =      T    Harris-Foulkes like correction to forces

   POTIM  = 0.5000    time-step for ionic-motion
   TEIN   =    0.0    initial temperature
   TEBEG  =    0.0;   TEEND  =   0.0 temperature during run
   SMASS  =  -3.00    Nose mass-parameter (am)
   estimated Nose-frequenzy (Omega)   =  0.10E-29 period in steps = 0.13E+47 mass=  -0.396E-26a.u.
   SCALEE = 1.0000    scale energy and forces
   NPACO  =    256;   APACO  = 10.0  distance and # of slots for P.C.
   PSTRESS=    0.0 pullay stress

  Mass of Ions in am
   POMASS =  92.91 95.94180.95183.85
  Ionic Valenz
   ZVAL   =  13.00 14.00 11.00 14.00
  Atomic Wigner-Seitz radii
   RWIGS  =  -1.00 -1.00 -1.00 -1.00
  virtual crystal weights 
   VCA    =   1.00  1.00  1.00  1.00
   NELECT =     417.0000    total number of electrons
   NUPDOWN=      -1.0000    fix difference up-down

 DOS related values:
   EMIN   =  10.00;   EMAX   =-10.00  energy-range for DOS
   EFERMI =   0.00
   ISMEAR =     0;   SIGMA  =   0.02  broadening in eV -4-tet -1-fermi 0-gaus

 Electronic relaxation 2 (details)
   IALGO  =     38    algorithm
   LDIAG  =      T    sub-space diagonalisation (order eigenvalues)
   LSUBROT=      F    optimize rotation matrix (better conditioning)
   TURBO    =      0    0=normal 1=particle mesh
   IRESTART =      0    0=no restart 2=restart with 2 vectors
   NREBOOT  =      0    no. of reboots
   NMIN     =      0    reboot dimension
   EREF     =   0.00    reference energy to select bands
   IMIX   =      4    mixing-type and parameters
     AMIX     =   0.40;   BMIX     =  1.00
     AMIX_MAG =   1.60;   BMIX_MAG =  1.00
     AMIN     =   0.10
     WC   =   100.;   INIMIX=   1;  MIXPRE=   1;  MAXMIX= -45

 Intra band minimization:
   WEIMIN = 0.0000     energy-eigenvalue tresh-hold
   EBREAK =  0.99E-11  absolut break condition
   DEPER  =   0.30     relativ break condition  

   TIME   =   0.40     timestep for ELM

  volume/ion in A,a.u.               =      17.81       120.16
  Fermi-wavevector in a.u.,A,eV,Ry     =   1.475313  2.787938 29.613756  2.176550
  Thomas-Fermi vector in A             =   2.589978
 
 Write flags
   LWAVE        =      F    write WAVECAR
   LDOWNSAMPLE  =      F    k-point downsampling of WAVECAR
   LCHARG       =      F    write CHGCAR
   LVTOT        =      F    write LOCPOT, total local potential
   LVHAR        =      F    write LOCPOT, Hartree potential only
   LELF         =      F    write electronic localiz. function (ELF)
   LORBIT       =      0    0 simple, 1 ext, 2 COOP (PROOUT), +10 PAW based schemes


 Dipole corrections
   LMONO  =      F    monopole corrections only (constant potential shift)
   LDIPOL =      F    correct potential (dipole corrections)
   IDIPOL =      0    1-x, 2-y, 3-z, 4-all directions 
   EPSILON=  1.0000000 bulk dielectric constant

 Core level calculations are selected ICORELEVEL =  1
 Exchange correlation treatment:
   GGA     =    PE    GGA type
   LEXCH   =     8    internal setting for exchange type
   LIBXC   =     F    Libxc                    
   VOSKOWN =     0    Vosko Wilk Nusair interpolation
   LHFCALC =     F    Hartree Fock is set to
   LHFONE  =     F    Hartree Fock one center treatment
   AEXX    =    0.0000 exact exchange contribution

 Linear response parameters
   LEPSILON=     F    determine dielectric tensor
   LRPA    =     F    only Hartree local field effects (RPA)
   LNABLA  =     F    use nabla operator in PAW spheres
   LVEL    =     F    velocity operator in full k-point grid
   CSHIFT  =0.1000    complex shift for real part using Kramers Kronig
   OMEGAMAX=  -1.0    maximum frequency
   DEG_THRESHOLD= 0.2000000E-02 threshold for treating states as degnerate
   RTIME   =   -0.100 relaxation time in fs
  (WPLASMAI=    0.000 imaginary part of plasma frequency in eV, 0.658/RTIME)
   DFIELD  = 0.0000000 0.0000000 0.0000000 field for delta impulse in time
 
  Optional k-point grid parameters
   LKPOINTS_OPT  =     F    use optional k-point grid
   KPOINTS_OPT_MODE=     1    mode for optional k-point grid
 
 Orbital magnetization related:
   ORBITALMAG=     F  switch on orbital magnetization
   LCHIMAG   =     F  perturbation theory with respect to B field
   DQ        =  0.001000  dq finite difference perturbation B field
   LLRAUG    =     F  two centre corrections for induced B field



--------------------------------------------------------------------------------------------------------


 Static calculation
 charge density and potential will be updated during run
 non-spin polarized calculation
 Variant of blocked Davidson
 Davidson routine will perform the subspace rotation
 perform sub-space diagonalisation
    after iterative eigenvector-optimisation
 modified Broyden-mixing scheme, WC =      100.0
 initial mixing is a Kerker type mixing with AMIX =  0.4000 and BMIX =      1.0000
 Hartree-type preconditioning will be used
 using additional bands           43
 reciprocal scheme for non local part
 use partial core corrections
 calculate Harris-corrections to forces 
   (improved forces if not selfconsistent)
 use gradient corrections 
 use of overlap-Matrix (Vanderbilt PP)
 Gauss-broadening in eV      SIGMA  =   0.02


--------------------------------------------------------------------------------------------------------


  energy-cutoff  :      250.00
  volume of cell :      569.78
      direct lattice vectors                 reciprocal lattice vectors
    13.160000000  0.000000000  0.000000000     0.075987842  0.000000000  0.000000000
     0.000000000  6.580000000  0.000000000     0.000000000  0.151975684  0.000000000
     0.000000000  0.000000000  6.580000000     0.000000000  0.000000000  0.151975684

  length of vectors
    13.160000000  6.580000000  6.580000000     0.075987842  0.151975684  0.151975684


 
 k-points in units of 2pi/SCALE and weight: K-Spacing Value to Generate K-Mesh: 0.03
   0.00000000  0.00000000  0.00000000       0.013
   0.02532928  0.00000000  0.00000000       0.027
   0.00000000  0.03039514  0.00000000       0.027
   0.00000000  0.00000000  0.03039514       0.027
   0.02532928  0.03039514  0.00000000       0.027
   0.02532928  0.00000000  0.03039514       0.027
   0.02532928 -0.03039514  0.00000000       0.027
   0.02532928  0.00000000 -0.03039514       0.027
   0.00000000  0.06079027  0.00000000       0.027
   0.00000000  0.00000000  0.06079027       0.027
   0.02532928  0.06079027  0.00000000       0.027
   0.02532928  0.00000000  0.06079027       0.027
   0.02532928 -0.06079027  0.00000000       0.027
   0.02532928  0.00000000 -0.06079027       0.027
   0.00000000  0.03039514  0.03039514       0.027
   0.00000000 -0.03039514  0.03039514       0.027
   0.02532928  0.03039514  0.03039514       0.027
   0.02532928 -0.03039514  0.03039514       0.027
   0.02532928 -0.03039514 -0.03039514       0.027
   0.02532928  0.03039514 -0.03039514       0.027
   0.00000000  0.06079027  0.03039514       0.027
   0.00000000 -0.03039514  0.06079027       0.027
   0.00000000 -0.06079027  0.03039514       0.027
   0.00000000  0.03039514  0.06079027       0.027
   0.02532928  0.06079027  0.03039514       0.027
   0.02532928 -0.03039514  0.06079027       0.027
   0.02532928 -0.06079027 -0.03039514       0.027
   0.02532928  0.03039514 -0.06079027       0.027
  -0.02532928 -0.06079027  0.03039514       0.027
  -0.02532928  0.03039514  0.06079027       0.027
  -0.02532928  0.06079027 -0.03039514       0.027
  -0.02532928 -0.03039514 -0.06079027       0.027
   0.00000000  0.06079027  0.06079027       0.027
   0.00000000 -0.06079027  0.06079027       0.027
   0.02532928  0.06079027  0.06079027       0.027
   0.02532928 -0.06079027  0.06079027       0.027
   0.02532928 -0.06079027 -0.06079027       0.027
   0.02532928  0.06079027 -0.06079027       0.027
 
 k-points in reciprocal lattice and weights: K-Spacing Value to Generate K-Mesh: 0.03
   0.00000000  0.00000000  0.00000000       0.013
   0.33333333  0.00000000  0.00000000       0.027
   0.00000000  0.20000000  0.00000000       0.027
   0.00000000  0.00000000  0.20000000       0.027
   0.33333333  0.20000000  0.00000000       0.027
   0.33333333  0.00000000  0.20000000       0.027
   0.33333333 -0.20000000  0.00000000       0.027
   0.33333333  0.00000000 -0.20000000       0.027
   0.00000000  0.40000000  0.00000000       0.027
   0.00000000  0.00000000  0.40000000       0.027
   0.33333333  0.40000000  0.00000000       0.027
   0.33333333  0.00000000  0.40000000       0.027
   0.33333333 -0.40000000  0.00000000       0.027
   0.33333333  0.00000000 -0.40000000       0.027
   0.00000000  0.20000000  0.20000000       0.027
   0.00000000 -0.20000000  0.20000000       0.027
   0.33333333  0.20000000  0.20000000       0.027
   0.33333333 -0.20000000  0.20000000       0.027
   0.33333333 -0.20000000 -0.20000000       0.027
   0.33333333  0.20000000 -0.20000000       0.027
   0.00000000  0.40000000  0.20000000       0.027
   0.00000000 -0.20000000  0.40000000       0.027
   0.00000000 -0.40000000  0.20000000       0.027
   0.00000000  0.20000000  0.40000000       0.027
   0.33333333  0.40000000  0.20000000       0.027
   0.33333333 -0.20000000  0.40000000       0.027
   0.33333333 -0.40000000 -0.20000000       0.027
   0.33333333  0.20000000 -0.40000000       0.027
  -0.33333333 -0.40000000  0.20000000       0.027
  -0.33333333  0.20000000  0.40000000       0.027
  -0.33333333  0.40000000 -0.20000000       0.027
  -0.33333333 -0.20000000 -0.40000000       0.027
   0.00000000  0.40000000  0.40000000       0.027
   0.00000000 -0.40000000  0.40000000       0.027
   0.33333333  0.40000000  0.40000000       0.027
   0.33333333 -0.40000000  0.40000000       0.027
   0.33333333 -0.40000000 -0.40000000       0.027
   0.33333333  0.40000000 -0.40000000       0.027
 
 position of ions in fractional coordinates (direct lattice) 
   0.50000000  0.00000000  0.00000000
   0.75000000  0.00000000  0.00000000
   0.75000000  0.50000000  0.50000000
   0.87500000  0.75000000  0.75000000
   0.87500000  0.25000000  0.25000000
   0.12500000  0.75000000  0.75000000
   0.75000000  0.00000000  0.50000000
   0.12500000  0.25000000  0.25000000
   0.00000000  0.50000000  0.00000000
   0.25000000  0.00000000  0.00000000
   0.87500000  0.25000000  0.75000000
   0.37500000  0.25000000  0.75000000
   0.62500000  0.75000000  0.75000000
   0.12500000  0.25000000  0.75000000
   0.00000000  0.00000000  0.50000000
   0.62500000  0.25000000  0.75000000
   0.00000000  0.50000000  0.50000000
   0.87500000  0.75000000  0.25000000
   0.75000000  0.50000000  0.00000000
   0.25000000  0.50000000  0.00000000
   0.37500000  0.75000000  0.25000000
   0.50000000  0.00000000  0.50000000
   0.25000000  0.50000000  0.50000000
   0.12500000  0.75000000  0.25000000
   0.37500000  0.75000000  0.75000000
   0.00000000  0.00000000  0.00000000
   0.37500000  0.25000000  0.25000000
   0.25000000  0.00000000  0.50000000
   0.50000000  0.50000000  0.50000000
   0.62500000  0.25000000  0.25000000
   0.62500000  0.75000000  0.25000000
   0.50000000  0.50000000  0.00000000
 
 position of ions in cartesian coordinates  (Angst):
   6.58000000  0.00000000  0.00000000
   9.87000000  0.00000000  0.00000000
   9.87000000  3.29000000  3.29000000
  11.51500000  4.93500000  4.93500000
  11.51500000  1.64500000  1.64500000
   1.64500000  4.93500000  4.93500000
   9.87000000  0.00000000  3.29000000
   1.64500000  1.64500000  1.64500000
   0.00000000  3.29000000  0.00000000
   3.29000000  0.00000000  0.00000000
  11.51500000  1.64500000  4.93500000
   4.93500000  1.64500000  4.93500000
   8.22500000  4.93500000  4.93500000
   1.64500000  1.64500000  4.93500000
   0.00000000  0.00000000  3.29000000
   8.22500000  1.64500000  4.93500000
   0.00000000  3.29000000  3.29000000
  11.51500000  4.93500000  1.64500000
   9.87000000  3.29000000  0.00000000
   3.29000000  3.29000000  0.00000000
   4.93500000  4.93500000  1.64500000
   6.58000000  0.00000000  3.29000000
   3.29000000  3.29000000  3.29000000
   1.64500000  4.93500000  1.64500000
   4.93500000  4.93500000  4.93500000
   0.00000000  0.00000000  0.00000000
   4.93500000  1.64500000  1.64500000
   3.29000000  0.00000000  3.29000000
   6.58000000  3.29000000  3.29000000
   8.22500000  1.64500000  1.64500000
   8.22500000  4.93500000  1.64500000
   6.58000000  3.29000000  0.00000000
 


--------------------------------------------------------------------------------------------------------


 k-point   1 :   0.0000 0.0000 0.0000  plane waves:    5077
 k-point   2 :   0.3333 0.0000 0.0000  plane waves:    5118
 k-point   3 :   0.0000 0.2000 0.0000  plane waves:    5099
 k-point   4 :   0.0000 0.0000 0.2000  plane waves:    5099
 k-point   5 :   0.3333 0.2000 0.0000  plane waves:    5140
 k-point   6 :   0.3333 0.0000 0.2000  plane waves:    5140
 k-point   7 :   0.3333-0.2000 0.0000  plane waves:    5140
 k-point   8 :   0.3333 0.0000-0.2000  plane waves:    5140
 k-point   9 :   0.0000 0.4000 0.0000  plane waves:    5119
 k-point  10 :   0.0000 0.0000 0.4000  plane waves:    5119
 k-point  11 :   0.3333 0.4000 0.0000  plane waves:    5127
 k-point  12 :   0.3333 0.0000 0.4000  plane waves:    5127
 k-point  13 :   0.3333-0.4000 0.0000  plane waves:    5127
 k-point  14 :   0.3333 0.0000-0.4000  plane waves:    5127
 k-point  15 :   0.0000 0.2000 0.2000  plane waves:    5124
 k-point  16 :   0.0000-0.2000 0.2000  plane waves:    5124
 k-point  17 :   0.3333 0.2000 0.2000  plane waves:    5117
 k-point  18 :   0.3333-0.2000 0.2000  plane waves:    5117
 k-point  19 :   0.3333-0.2000-0.2000  plane waves:    5117
 k-point  20 :   0.3333 0.2000-0.2000  plane waves:    5117
 k-point  21 :   0.0000 0.4000 0.2000  plane waves:    5118
 k-point  22 :   0.0000-0.2000 0.4000  plane waves:    5118
 k-point  23 :   0.0000-0.4000 0.2000  plane waves:    5118
 k-point  24 :   0.0000 0.2000 0.4000  plane waves:    5118
 k-point  25 :   0.3333 0.4000 0.2000  plane waves:    5105
 k-point  26 :   0.3333-0.2000 0.4000  plane waves:    5105
 k-point  27 :   0.3333-0.4000-0.2000  plane waves:    5105
 k-point  28 :   0.3333 0.2000-0.4000  plane waves:    5105
 k-point  29 :  -0.3333-0.4000 0.2000  plane waves:    5105
 k-point  30 :  -0.3333 0.2000 0.4000  plane waves:    5105
 k-point  31 :  -0.3333 0.4000-0.2000  plane waves:    5105
 k-point  32 :  -0.3333-0.2000-0.4000  plane waves:    5105
 k-point  33 :   0.0000 0.4000 0.4000  plane waves:    5098
 k-point  34 :   0.0000-0.4000 0.4000  plane waves:    5098
 k-point  35 :   0.3333 0.4000 0.4000  plane waves:    5088
 k-point  36 :   0.3333-0.4000 0.4000  plane waves:    5088
 k-point  37 :   0.3333-0.4000-0.4000  plane waves:    5088
 k-point  38 :   0.3333 0.4000-0.4000  plane waves:    5088

 maximum and minimum number of plane-waves per node :       464      388

 maximum number of plane-waves:      5140
 maximum index in each direction: 
   IXMAX=   17   IYMAX=    8   IZMAX=    8
   IXMIN=  -17   IYMIN=   -8   IZMIN=   -8


 parallel 3D FFT for wavefunctions:
    minimum data exchange during FFTs selected (reduces bandwidth)
 parallel 3D FFT for charge:
    minimum data exchange during FFTs selected (reduces bandwidth)


 total amount of memory used by VASP MPI-rank0    61379. kBytes
=======================================================================

   base      :      30000. kBytes
   nonl-proj :       9945. kBytes
   fftplans  :        778. kBytes
   grid      :       1458. kBytes
   one-center:         46. kBytes
   wavefun   :      19152. kBytes
 
     INWAV:  cpu time      0.0000: real time      0.0000
 Broyden mixing: mesh for mixing (old mesh)
   NGX = 33   NGY = 17   NGZ = 17
  (NGX  =140   NGY  = 72   NGZ  = 72)
  gives a total of   9537 points

 initial charge density was supplied:
 charge density of overlapping atoms calculated
 number of electron     417.0000000 magnetization 
 keeping initial charge density in first step


--------------------------------------------------------------------------------------------------------


 Maximum index for augmentation-charges          517 (set IRDMAX)


--------------------------------------------------------------------------------------------------------


 First call to EWALD:  gamma=   0.214
 Maximum number of real-space cells 2x 3x 3
 Maximum number of reciprocal cells 4x 2x 2

    FEWALD:  cpu time      0.0510: real time      0.0512


--------------------------------------- Iteration      1(   1)  ---------------------------------------


    POTLOK:  cpu time      0.0133: real time      0.0185
    SETDIJ:  cpu time      0.0027: real time      0.0028
     EDDAV:  cpu time     10.6968: real time     11.6723
       DOS:  cpu time      0.0643: real time      0.1164
    --------------------------------------------
      LOOP:  cpu time     10.7772: real time     11.8102

 eigenvalue-minimisations  : 19712
 total energy-change (2. order) : 0.3956827E+04  (-0.1632210E+05)
 number of electron     417.0000000 magnetization 
 augmentation part      417.0000000 magnetization 

 Free energy of the ion-electron system (eV)
  ---------------------------------------------------
  alpha Z        PSCENC =      3769.82244865
  Ewald energy   TEWEN  =    -43429.94764474
  -Hartree energ DENC   =     -8261.48817924
  -exchange      EXHF   =         0.00000000
  -V(xc)+E(xc)   XCENC  =      1626.42041988
  PAW double counting   =     40507.45551663   -39899.22404218
  entropy T*S    EENTRO =        -0.00183373
  eigenvalues    EBANDS =     -1408.64583070
  atomic energy  EATOM  =     51052.43565715
  Solvation  Ediel_sol  =         0.00000000
  ---------------------------------------------------
  free energy    TOTEN  =      3956.82651171 eV

  energy without entropy =     3956.82834544  energy(sigma->0) =     3956.82742857


--------------------------------------------------------------------------------------------------------




--------------------------------------- Iteration      1(   2)  ---------------------------------------


     EDDAV:  cpu time     11.9456: real time     12.4064
       DOS:  cpu time      0.0986: real time      0.1899
    --------------------------------------------
      LOOP:  cpu time     12.0443: real time     12.5963

 eigenvalue-minimisations  : 19692
 total energy-change (2. order) :-0.4013146E+04  (-0.3880133E+04)
 number of electron     417.0000000 magnetization 
 augmentation part      417.0000000 magnetization 

 Free energy of the ion-electron system (eV)
  ---------------------------------------------------
  alpha Z        PSCENC =      3769.82244865
  Ewald energy   TEWEN  =    -43429.94764474
  -Hartree energ DENC   =     -8261.48817924
  -exchange      EXHF   =         0.00000000
  -V(xc)+E(xc)   XCENC  =      1626.42041988
  PAW double counting   =     40507.45551663   -39899.22404218
  entropy T*S    EENTRO =        -0.00293631
  eigenvalues    EBANDS =     -5421.79101521
  atomic energy  EATOM  =     51052.43565715
  Solvation  Ediel_sol  =         0.00000000
  ---------------------------------------------------
  free energy    TOTEN  =       -56.31977538 eV

  energy without entropy =      -56.31683907  energy(sigma->0) =      -56.31830723


--------------------------------------------------------------------------------------------------------




--------------------------------------- Iteration      1(   3)  ---------------------------------------


     EDDAV:  cpu time     16.3313: real time     16.5157
       DOS:  cpu time      0.0261: real time      0.0262
    --------------------------------------------
      LOOP:  cpu time     16.3572: real time     16.5418

 eigenvalue-minimisations  : 27568
 total energy-change (2. order) :-0.3165146E+03  (-0.2971152E+03)
 number of electron     417.0000000 magnetization 
 augmentation part      417.0000000 magnetization 

 Free energy of the ion-electron system (eV)
  ---------------------------------------------------
  alpha Z        PSCENC =      3769.82244865
  Ewald energy   TEWEN  =    -43429.94764474
  -Hartree energ DENC   =     -8261.48817924
  -exchange      EXHF   =         0.00000000
  -V(xc)+E(xc)   XCENC  =      1626.42041988
  PAW double counting   =     40507.45551663   -39899.22404218
  entropy T*S    EENTRO =        -0.00631405
  eigenvalues    EBANDS =     -5738.30219628
  atomic energy  EATOM  =     51052.43565715
  Solvation  Ediel_sol  =         0.00000000
  ---------------------------------------------------
  free energy    TOTEN  =      -372.83433419 eV

  energy without entropy =     -372.82802014  energy(sigma->0) =     -372.83117717


--------------------------------------------------------------------------------------------------------




--------------------------------------- Iteration      1(   4)  ---------------------------------------


     EDDAV:  cpu time     29.4956: real time     30.3702
       DOS:  cpu time      0.0195: real time      0.0325
    --------------------------------------------
      LOOP:  cpu time     29.5150: real time     30.4027

 eigenvalue-minimisations  : 26480
 total energy-change (2. order) :-0.1853392E+02  (-0.1793410E+02)
 number of electron     417.0000000 magnetization 
 augmentation part      417.0000000 magnetization 

 Free energy of the ion-electron system (eV)
  ---------------------------------------------------
  alpha Z        PSCENC =      3769.82244865
  Ewald energy   TEWEN  =    -43429.94764474
  -Hartree energ DENC   =     -8261.48817924
  -exchange      EXHF   =         0.00000000
  -V(xc)+E(xc)   XCENC  =      1626.42041988
  PAW double counting   =     40507.45551663   -39899.22404218
  entropy T*S    EENTRO =        -0.00425914
  eigenvalues    EBANDS =     -5756.83817567
  atomic energy  EATOM  =     51052.43565715
  Solvation  Ediel_sol  =         0.00000000
  ---------------------------------------------------
  free energy    TOTEN  =      -391.36825867 eV

  energy without entropy =     -391.36399953  energy(sigma->0) =     -391.36612910


--------------------------------------------------------------------------------------------------------




--------------------------------------- Iteration      1(   5)  ---------------------------------------


     EDDAV:  cpu time     18.2633: real time     19.5431
       DOS:  cpu time      0.4045: real time      0.4871
    CHARGE:  cpu time      0.5179: real time      0.5200
    MIXING:  cpu time      0.1446: real time      0.1452
    --------------------------------------------
      LOOP:  cpu time     19.3303: real time     20.6954

 eigenvalue-minimisations  : 32064
 total energy-change (2. order) :-0.1174127E+01  (-0.1163348E+01)
 number of electron     416.9999740 magnetization 
 augmentation part       91.4636033 magnetization 

 Broyden mixing:
  rms(total) = 0.76935E+01    rms(broyden)= 0.76918E+01
  rms(prec ) = 0.79085E+01
  weight for this iteration     100.00

 Free energy of the ion-electron system (eV)
  ---------------------------------------------------
  alpha Z        PSCENC =      3769.82244865
  Ewald energy   TEWEN  =    -43429.94764474
  -Hartree energ DENC   =     -8261.48817924
  -exchange      EXHF   =         0.00000000
  -V(xc)+E(xc)   XCENC  =      1626.42041988
  PAW double counting   =     40507.45551663   -39899.22404218
  entropy T*S    EENTRO =        -0.00425369
  eigenvalues    EBANDS =     -5758.01230848
  atomic energy  EATOM  =     51052.43565715
  Solvation  Ediel_sol  =         0.00000000
  ---------------------------------------------------
  free energy    TOTEN  =      -392.54238604 eV

  energy without entropy =     -392.53813235  energy(sigma->0) =     -392.54025919


--------------------------------------------------------------------------------------------------------




--------------------------------------- Iteration      1(   6)  ---------------------------------------


    POTLOK:  cpu time      0.2941: real time      0.2954
    SETDIJ:  cpu time      0.0037: real time      0.0038
     EDDAV:  cpu time     22.1565: real time     23.1248
       DOS:  cpu time      0.4454: real time      0.4472
    CHARGE:  cpu time      0.4331: real time      0.4346
    MIXING:  cpu time      0.2114: real time      0.2122
    --------------------------------------------
      LOOP:  cpu time     23.5443: real time     24.5180

 eigenvalue-minimisations  : 22800
 total energy-change (2. order) : 0.1538246E+02  (-0.4873491E+01)
 number of electron     416.9999724 magnetization 
 augmentation part       95.1790546 magnetization 

 Broyden mixing:
  rms(total) = 0.28609E+01    rms(broyden)= 0.28604E+01
  rms(prec ) = 0.32277E+01
  weight for this iteration     100.00

 eigenvalues of (default mixing * dielectric matrix)
  average eigenvalue GAMMA=   1.4170
  1.4170

 Free energy of the ion-electron system (eV)
  ---------------------------------------------------
  alpha Z        PSCENC =      3769.82244865
  Ewald energy   TEWEN  =    -43429.94764474
  -Hartree energ DENC   =     -7785.24254492
  -exchange      EXHF   =         0.00000000
  -V(xc)+E(xc)   XCENC  =      1603.30571791
  PAW double counting   =     47471.48374811   -46928.33065956
  entropy T*S    EENTRO =        -0.00492248
  eigenvalues    EBANDS =     -6130.68173072
  atomic energy  EATOM  =     51052.43565715
  Solvation  Ediel_sol  =         0.00000000
  ---------------------------------------------------
  free energy    TOTEN  =      -377.15993060 eV

  energy without entropy =     -377.15500813  energy(sigma->0) =     -377.15746937


--------------------------------------------------------------------------------------------------------




--------------------------------------- Iteration      1(   7)  ---------------------------------------


    POTLOK:  cpu time      0.3863: real time      0.3880
    SETDIJ:  cpu time      0.0563: real time      0.0565
     EDDAV:  cpu time     17.1270: real time     17.1975
       DOS:  cpu time      0.1263: real time      0.1268
    CHARGE:  cpu time      0.4254: real time      0.4269
    MIXING:  cpu time      0.0804: real time      0.0808
    --------------------------------------------
      LOOP:  cpu time     18.2017: real time     18.2765

 eigenvalue-minimisations  : 27360
 total energy-change (2. order) :-0.7425445E+01  (-0.4931682E+01)
 number of electron     416.9999729 magnetization 
 augmentation part       95.0787363 magnetization 

 Broyden mixing:
  rms(total) = 0.18214E+01    rms(broyden)= 0.18202E+01
  rms(prec ) = 0.45118E+01
  weight for this iteration     100.00

 eigenvalues of (default mixing * dielectric matrix)
  average eigenvalue GAMMA=   1.0856
  1.6079  0.5633

 Free energy of the ion-electron system (eV)
  ---------------------------------------------------
  alpha Z        PSCENC =      3769.82244865
  Ewald energy   TEWEN  =    -43429.94764474
  -Hartree energ DENC   =     -7654.44839713
  -exchange      EXHF   =         0.00000000
  -V(xc)+E(xc)   XCENC  =      1595.62225372
  PAW double counting   =     52063.51575461   -51545.07432927
  entropy T*S    EENTRO =        -0.00638943
  eigenvalues    EBANDS =     -6236.50472942
  atomic energy  EATOM  =     51052.43565715
  Solvation  Ediel_sol  =         0.00000000
  ---------------------------------------------------
  free energy    TOTEN  =      -384.58537588 eV

  energy without entropy =     -384.57898644  energy(sigma->0) =     -384.58218116


--------------------------------------------------------------------------------------------------------




--------------------------------------- Iteration      1(   8)  ---------------------------------------


    POTLOK:  cpu time      0.0125: real time      0.0128
    SETDIJ:  cpu time      0.0021: real time      0.0021
     EDDAV:  cpu time     11.2031: real time     11.2487
       DOS:  cpu time      0.1333: real time      0.1337
    CHARGE:  cpu time      0.1692: real time      0.1698
    MIXING:  cpu time      0.0003: real time      0.0003
    --------------------------------------------
      LOOP:  cpu time     11.5206: real time     11.5675

 eigenvalue-minimisations  : 26248
 total energy-change (2. order) : 0.1160996E+02  (-0.2913042E+01)
 number of electron     416.9999729 magnetization 
 augmentation part       95.6761569 magnetization 

 Broyden mixing:
  rms(total) = 0.85133E+00    rms(broyden)= 0.84956E+00
  rms(prec ) = 0.14166E+01
  weight for this iteration     100.00

 eigenvalues of (default mixing * dielectric matrix)
  average eigenvalue GAMMA=   0.9466
  1.7395  0.7892  0.3111

 Free energy of the ion-electron system (eV)
  ---------------------------------------------------
  alpha Z        PSCENC =      3769.82244865
  Ewald energy   TEWEN  =    -43429.94764474
  -Hartree energ DENC   =     -7590.05044988
  -exchange      EXHF   =         0.00000000
  -V(xc)+E(xc)   XCENC  =      1592.79565240
  PAW double counting   =     53307.19192195   -52798.44660340
  entropy T*S    EENTRO =        -0.00312599
  eigenvalues    EBANDS =     -6276.77327580
  atomic energy  EATOM  =     51052.43565715
  Solvation  Ediel_sol  =         0.00000000
  ---------------------------------------------------
  free energy    TOTEN  =      -372.97541967 eV

  energy without entropy =     -372.97229368  energy(sigma->0) =     -372.97385667


--------------------------------------------------------------------------------------------------------




--------------------------------------- Iteration      1(   9)  ---------------------------------------


    POTLOK:  cpu time      0.0063: real time      0.0064
    SETDIJ:  cpu time      0.0020: real time      0.0020
     EDDAV:  cpu time      7.1217: real time      7.1496
       DOS:  cpu time      0.0050: real time      0.0050
    CHARGE:  cpu time      0.1674: real time      0.1679
    MIXING:  cpu time      0.0004: real time      0.0004
    --------------------------------------------
      LOOP:  cpu time      7.3027: real time      7.3313

 eigenvalue-minimisations  : 24776
 total energy-change (2. order) : 0.5047519E+00  (-0.1259641E+01)
 number of electron     416.9999725 magnetization 
 augmentation part       96.4230582 magnetization 

 Broyden mixing:
  rms(total) = 0.57289E+00    rms(broyden)= 0.57259E+00
  rms(prec ) = 0.69122E+00
  weight for this iteration     100.00

 eigenvalues of (default mixing * dielectric matrix)
  average eigenvalue GAMMA=   0.9504
  1.6845  1.3746  0.4649  0.2777

 Free energy of the ion-electron system (eV)
  ---------------------------------------------------
  alpha Z        PSCENC =      3769.82244865
  Ewald energy   TEWEN  =    -43429.94764474
  -Hartree energ DENC   =     -7544.80182979
  -exchange      EXHF   =         0.00000000
  -V(xc)+E(xc)   XCENC  =      1590.94959248
  PAW double counting   =     54253.76264510   -53751.07124618
  entropy T*S    EENTRO =        -0.00393470
  eigenvalues    EBANDS =     -6313.61635574
  atomic energy  EATOM  =     51052.43565715
  Solvation  Ediel_sol  =         0.00000000
  ---------------------------------------------------
  free energy    TOTEN  =      -372.47066778 eV

  energy without entropy =     -372.46673308  energy(sigma->0) =     -372.46870043


--------------------------------------------------------------------------------------------------------




--------------------------------------- Iteration      1(  10)  ---------------------------------------


    POTLOK:  cpu time      0.0062: real time      0.0063
    SETDIJ:  cpu time      0.0020: real time      0.0020
     EDDAV:  cpu time      7.1840: real time      7.2118
       DOS:  cpu time      0.0056: real time      0.0056
    CHARGE:  cpu time      0.1678: real time      0.1684
    MIXING:  cpu time      0.0004: real time      0.0004
    --------------------------------------------
      LOOP:  cpu time      7.3660: real time      7.3945

 eigenvalue-minimisations  : 24504
 total energy-change (2. order) : 0.1530925E+00  (-0.2241514E+00)
 number of electron     416.9999727 magnetization 
 augmentation part       96.2597563 magnetization 

 Broyden mixing:
  rms(total) = 0.35689E+00    rms(broyden)= 0.35678E+00
  rms(prec ) = 0.40189E+00
  weight for this iteration     100.00

 eigenvalues of (default mixing * dielectric matrix)
  average eigenvalue GAMMA=   1.0747
  1.9819  1.9819  0.6920  0.4280  0.2896

 Free energy of the ion-electron system (eV)
  ---------------------------------------------------
  alpha Z        PSCENC =      3769.82244865
  Ewald energy   TEWEN  =    -43429.94764474
  -Hartree energ DENC   =     -7551.37393451
  -exchange      EXHF   =         0.00000000
  -V(xc)+E(xc)   XCENC  =      1591.21253750
  PAW double counting   =     54595.87612054   -54092.64452247
  entropy T*S    EENTRO =        -0.00296853
  eigenvalues    EBANDS =     -6307.69526882
  atomic energy  EATOM  =     51052.43565715
  Solvation  Ediel_sol  =         0.00000000
  ---------------------------------------------------
  free energy    TOTEN  =      -372.31757523 eV

  energy without entropy =     -372.31460670  energy(sigma->0) =     -372.31609097


--------------------------------------------------------------------------------------------------------




--------------------------------------- Iteration      1(  11)  ---------------------------------------


    POTLOK:  cpu time      0.0062: real time      0.0063
    SETDIJ:  cpu time      0.0020: real time      0.0020
     EDDAV:  cpu time      7.0501: real time      7.0775
       DOS:  cpu time      0.0049: real time      0.0049
    CHARGE:  cpu time      0.1645: real time      0.1651
    MIXING:  cpu time      0.0004: real time      0.0004
    --------------------------------------------
      LOOP:  cpu time      7.2281: real time      7.2563

 eigenvalue-minimisations  : 24936
 total energy-change (2. order) : 0.1807367E-01  (-0.7318346E-01)
 number of electron     416.9999728 magnetization 
 augmentation part       96.0818199 magnetization 

 Broyden mixing:
  rms(total) = 0.13996E+00    rms(broyden)= 0.13982E+00
  rms(prec ) = 0.20077E+00
  weight for this iteration     100.00

 eigenvalues of (default mixing * dielectric matrix)
  average eigenvalue GAMMA=   1.0569
  2.4438  1.8261  0.8795  0.2903  0.4509  0.4509

 Free energy of the ion-electron system (eV)
  ---------------------------------------------------
  alpha Z        PSCENC =      3769.82244865
  Ewald energy   TEWEN  =    -43429.94764474
  -Hartree energ DENC   =     -7561.61658340
  -exchange      EXHF   =         0.00000000
  -V(xc)+E(xc)   XCENC  =      1591.65567504
  PAW double counting   =     54816.68494756   -54312.24866536
  entropy T*S    EENTRO =        -0.00336678
  eigenvalues    EBANDS =     -6299.08196968
  atomic energy  EATOM  =     51052.43565715
  Solvation  Ediel_sol  =         0.00000000
  ---------------------------------------------------
  free energy    TOTEN  =      -372.29950156 eV

  energy without entropy =     -372.29613478  energy(sigma->0) =     -372.29781817


--------------------------------------------------------------------------------------------------------




--------------------------------------- Iteration      1(  12)  ---------------------------------------


    POTLOK:  cpu time      0.0062: real time      0.0063
    SETDIJ:  cpu time      0.0020: real time      0.0020
     EDDAV:  cpu time     20.4449: real time     20.6053
       DOS:  cpu time      0.0055: real time      0.0055
    CHARGE:  cpu time      0.1648: real time      0.1653
    MIXING:  cpu time      0.1233: real time      0.1237
    --------------------------------------------
[...]
    127       4.4356      2.00000
    128       4.7515      2.00000
    129       4.9566      2.00000
    130       5.0052      2.00000
    131       5.1449      2.00000
    132       5.3114      2.00000
    133       5.3489      2.00000
    134       5.5835      2.00000
    135       5.6033      2.00000
    136       5.6553      2.00000
    137       5.6907      2.00000
    138       5.7247      2.00000
    139       5.7874      2.00000
    140       5.8377      2.00000
    141       5.8907      2.00000
    142       5.9231      2.00000
    143       5.9439      2.00000
    144       5.9873      2.00000
    145       6.0121      2.00000
    146       6.0490      2.00000
    147       6.0660      2.00000
    148       6.1239      2.00000
    149       6.1298      2.00000
    150       6.1640      2.00000
    151       6.2178      2.00000
    152       6.3097      2.00000
    153       6.3837      2.00000
    154       6.4106      2.00000
    155       6.4677      2.00000
    156       6.4877      2.00000
    157       6.5345      2.00000
    158       6.6359      2.00000
    159       6.7445      2.00000
    160       6.8036      2.00000
    161       6.8256      2.00000
    162       6.8674      2.00000
    163       6.8920      2.00000
    164       6.9134      2.00000
    165       6.9334      2.00000
    166       6.9475      2.00000
    167       6.9721      2.00000
    168       6.9933      2.00000
    169       7.0305      2.00000
    170       7.0544      2.00000
    171       7.0741      2.00000
    172       7.1032      2.00000
    173       7.1575      2.00000
    174       7.1813      2.00000
    175       7.2318      2.00000
    176       7.2487      2.00000
    177       7.2724      2.00000
    178       7.2903      2.00000
    179       7.3053      2.00000
    180       7.3432      2.00000
    181       7.3565      2.00000
    182       7.3760      2.00000
    183       7.3892      2.00000
    184       7.4125      2.00000
    185       7.4242      2.00000
    186       7.4693      2.00000
    187       7.4935      2.00000
    188       7.5201      2.00000
    189       7.5341      2.00000
    190       7.5575      2.00000
    191       7.5960      2.00000
    192       7.6083      2.00000
    193       7.6448      2.00000
    194       7.6534      2.00000
    195       7.6692      2.00000
    196       7.7206      2.00000
    197       7.7518      2.00000
    198       7.7705      2.00000
    199       7.8204      2.00000
    200       7.8351      2.00000
    201       7.8763      2.00000
    202       7.8952      2.00000
    203       7.9335      2.00000
    204       7.9579      2.00000
    205       7.9980      2.00000
    206       8.0228      2.00000
    207       8.0594      2.00000
    208       8.1085      2.00000
    209       8.1311      2.00000
    210       8.1543      2.00000
    211       8.2844      2.00000
    212       8.4669      2.00000
    213       8.5375      2.00000
    214       8.6710      2.00000
    215       9.3209      0.00000
    216      10.1578      0.00000
    217      10.3927      0.00000
    218      10.4140      0.00000
    219      10.4404      0.00000
    220      10.4804      0.00000
    221      10.5233      0.00000
    222      10.6118      0.00000
    223      10.6949      0.00000
    224      10.7240      0.00000
    225      10.7948      0.00000
    226      10.8211      0.00000
    227      10.8445      0.00000
    228      10.8700      0.00000
    229      10.9167      0.00000
    230      10.9448      0.00000
    231      10.9782      0.00000
    232      11.0233      0.00000
    233      11.0639      0.00000
    234      11.0710      0.00000
    235      11.1215      0.00000
    236      11.1389      0.00000
    237      11.1825      0.00000
    238      11.2246      0.00000
    239      11.2338      0.00000
    240      11.2787      0.00000
    241      11.2991      0.00000
    242      11.3486      0.00000
    243      11.3944      0.00000
    244      11.4411      0.00000
    245      11.5012      0.00000
    246      11.5290      0.00000
    247      11.5704      0.00000
    248      11.6044      0.00000
    249      11.6319      0.00000
    250      11.7146      0.00000
    251      11.7535      0.00000
    252      11.7675      0.00000


--------------------------------------------------------------------------------------------------------


 soft charge-density along one line, spin component           1
         0         1         2         3         4         5         6         7         8         9
 total charge-density along one line
 
 pseudopotential strength for first ion, spin component:           1
  5.840 -20.574  -0.000  -0.000   0.000   0.001   0.001  -0.001
-20.574   9.463  -0.000  -0.001   0.001   0.000   0.000  -0.000
 -0.000  -0.000  -9.913  -0.002   0.004   6.202   0.002  -0.005
 -0.000  -0.001  -0.002  -9.911  -0.002   0.002   6.200   0.002
  0.000   0.001   0.004  -0.002  -9.909  -0.005   0.002   6.199
  0.001   0.000   6.202   0.002  -0.005   7.811  -0.002   0.003
  0.001   0.000   0.002   6.200   0.002  -0.002   7.812  -0.002
 -0.001  -0.000  -0.005   0.002   6.199   0.003  -0.002   7.813
  0.003   0.001   0.001   0.000  -0.000  -0.001  -0.000   0.000
 -0.002  -0.001  -0.000  -0.000   0.000   0.000   0.000  -0.000
  0.000  -0.000   0.000  -0.000  -0.000  -0.000   0.000   0.000
 -0.001  -0.001   0.000   0.000  -0.000  -0.000  -0.001   0.000
  0.001   0.000   0.000  -0.000  -0.000  -0.000   0.000  -0.000
  0.004   0.002   0.001   0.000  -0.000  -0.001  -0.000   0.000
 -0.002  -0.001  -0.001  -0.000   0.000   0.001   0.000  -0.000
  0.000  -0.000   0.000  -0.000  -0.000  -0.000   0.000   0.000
 -0.002  -0.001   0.000   0.001  -0.001  -0.000  -0.001   0.001
  0.002   0.001   0.000  -0.000  -0.000  -0.000   0.000  -0.000
 total augmentation occupancy for first ion, spin component:           1
  1.995  -0.049  -0.000  -0.000  -0.000  -0.000  -0.000  -0.000   0.010  -0.007   0.001  -0.008   0.001  -0.008   0.006  -0.001
 -0.049   1.284  -0.000  -0.001  -0.002  -0.001   0.001   0.004   0.033  -0.016   0.024  -0.016   0.018  -0.014   0.002  -0.009
 -0.000  -0.000   1.996   0.000  -0.000  -0.032  -0.001   0.001  -0.001  -0.002   0.001   0.001   0.002   0.001   0.001  -0.001
 -0.000  -0.001   0.000   1.996   0.000  -0.001  -0.033  -0.001   0.001  -0.002  -0.002  -0.001  -0.000  -0.000   0.002   0.001
 -0.000  -0.002  -0.000   0.000   1.996   0.001  -0.001  -0.033  -0.002   0.001   0.001  -0.002  -0.001   0.001  -0.000   0.000
 -0.000  -0.001  -0.032  -0.001   0.001   0.069   0.002  -0.001  -0.002   0.008   0.000  -0.006  -0.001   0.001  -0.005  -0.000
 -0.000   0.001  -0.001  -0.033  -0.001   0.002   0.072   0.002  -0.007   0.002   0.002  -0.000   0.000   0.003  -0.000  -0.001
 -0.000   0.004   0.001  -0.001  -0.033  -0.001   0.002   0.072   0.001  -0.007  -0.003   0.008   0.005  -0.000   0.003   0.001
  0.010   0.033  -0.001   0.001  -0.002  -0.002  -0.007   0.001   3.418  -0.013  -0.063  -0.006  -0.000  -1.448  -0.005   0.029
 -0.007  -0.016  -0.002  -0.002   0.001   0.008   0.002  -0.007  -0.013   3.421  -0.024   0.076   0.042  -0.005  -1.451   0.010
  0.001   0.024   0.001  -0.002   0.001   0.000   0.002  -0.003  -0.063  -0.024   2.575  -0.022  -0.025   0.028   0.010  -1.169
 -0.008  -0.016   0.001  -0.001  -0.002  -0.006  -0.000   0.008  -0.006   0.076  -0.022   3.390  -0.039  -0.007  -0.028   0.009
  0.001   0.018   0.002  -0.000  -0.001  -0.001   0.000   0.005  -0.000   0.042  -0.025  -0.039   2.542  -0.000  -0.016   0.006
 -0.008  -0.014   0.001  -0.000   0.001   0.001   0.003  -0.000  -1.448  -0.005   0.028  -0.007  -0.000   0.625   0.006  -0.013
  0.006   0.002   0.001   0.002  -0.000  -0.005  -0.000   0.003  -0.005  -1.451   0.010  -0.028  -0.016   0.006   0.628  -0.004
 -0.001  -0.009  -0.001   0.001   0.000  -0.000  -0.001   0.001   0.029   0.010  -1.169   0.009   0.006  -0.013  -0.004   0.538
  0.006   0.003  -0.000   0.001   0.001   0.003   0.000  -0.005  -0.007  -0.028   0.009  -1.441   0.016   0.007   0.011  -0.004
 -0.001  -0.005  -0.001   0.000   0.000   0.000  -0.000  -0.002  -0.001  -0.017   0.006   0.017  -1.156   0.000   0.007  -0.001


------------------------ aborting loop because EDIFF is reached ----------------------------------------


    CHARGE:  cpu time      0.3323: real time      0.3334
    FORLOC:  cpu time      0.0141: real time      0.0142
    FORNL :  cpu time      4.8963: real time      4.9223
    STRESS:  cpu time      3.3995: real time      3.4123
    FORCOR:  cpu time      0.0320: real time      0.0323
    FORHAR:  cpu time      0.1242: real time      0.1247
    MIXING:  cpu time      0.4369: real time      0.4386
    OFIELD:  cpu time      0.0000: real time      0.0000

  FORCE on cell =-STRESS in cart. coord.  units (eV):
  Direction    XX          YY          ZZ          XY          YZ          ZX
  --------------------------------------------------------------------------------------
  Alpha Z  3769.82245  3769.82245  3769.82245
  Ewald  -14440.00412-14546.29485-14443.87617    46.66147     1.98444    26.66370
  Hartree  2557.05699  2451.19394  2550.58708    43.67256     1.44044    24.74545
  E(xc)   -1920.10195 -1920.09399 -1920.16763    -0.08955     0.02295    -0.03766
  Local    3281.08440  3494.46878  3293.98251   -87.06264    -4.58305   -50.88989
  n-local  -791.73633  -791.92181  -794.05305    -1.55830     0.68537     0.34619
  augment  1170.84190  1170.47326  1170.80135    -0.57216     0.14491    -0.08529
  Kinetic  6314.77186  6313.85291  6314.86041     0.28456     0.07302    -0.44120
  Fock        0.00000     0.00000     0.00000     0.00000     0.00000     0.00000
  -------------------------------------------------------------------------------------
  Total     -58.26479   -58.49930   -58.04305     1.33594    -0.23191     0.30130
  in kB    -163.83591  -164.49534  -163.21239     3.75655    -0.65211     0.84722
  external pressure =     -163.85 kB  Pullay stress =        0.00 kB


 VOLUME and BASIS-vectors are now :
 -----------------------------------------------------------------------------
  energy-cutoff  :      250.00
  volume of cell :      569.78
      direct lattice vectors                 reciprocal lattice vectors
    13.160000000  0.000000000  0.000000000     0.075987842  0.000000000  0.000000000
     0.000000000  6.580000000  0.000000000     0.000000000  0.151975684  0.000000000
     0.000000000  0.000000000  6.580000000     0.000000000  0.000000000  0.151975684

  length of vectors
    13.160000000  6.580000000  6.580000000     0.075987842  0.151975684  0.151975684


 FORCES acting on ions
    electron-ion (+dipol)            ewald-force                    non-local-force                 convergence-correction
 -----------------------------------------------------------------------------------------------
   -.616E+01 0.358E+01 -.251E+01   0.637E+01 -.355E+01 0.254E+01   -.291E+00 0.179E-02 -.103E+00   0.225E-03 -.339E-03 -.131E-03
   0.962E+01 0.130E+02 0.689E+01   -.995E+01 -.127E+02 -.664E+01   0.481E+00 0.177E-01 -.150E+00   0.393E-03 -.428E-03 0.502E-03
   -.293E+02 -.129E+02 -.688E+01   0.292E+02 0.127E+02 0.664E+01   -.131E+00 0.442E-01 0.119E+00   0.795E-04 0.459E-03 -.501E-03
   0.209E+02 0.596E+02 0.105E+01   -.204E+02 -.592E+02 -.102E+01   -.117E+00 -.514E-01 -.494E-01   0.214E-03 0.436E-03 -.816E-04
   0.223E+02 -.640E+02 -.116E+01   -.220E+02 0.637E+02 0.109E+01   -.761E-02 -.483E-01 0.565E-01   0.188E-03 -.382E-03 0.563E-04
   -.264E+02 0.937E+02 0.308E+02   0.260E+02 -.934E+02 -.308E+02   0.279E+00 0.326E-01 0.786E-01   -.183E-03 0.336E-03 0.575E-03
   0.186E+02 0.139E+02 -.737E+01   -.193E+02 -.137E+02 0.715E+01   0.447E+00 -.712E-02 0.437E-01   0.238E-03 -.550E-03 -.508E-03
   -.367E+02 -.938E+02 -.308E+02   0.366E+02 0.934E+02 0.308E+02   -.119E+00 -.768E-01 -.649E-01   -.655E-03 -.363E-03 -.523E-03
   0.494E+01 -.733E+02 -.522E+02   -.481E+01 0.730E+02 0.522E+02   0.436E-01 -.142E+00 -.104E+00   -.156E-03 0.300E-03 0.454E-03
   -.213E+02 0.633E+02 -.623E+02   0.217E+02 -.632E+02 0.621E+02   -.641E+00 0.147E+00 -.951E-01   -.675E-03 -.248E-03 -.158E-03
   0.536E+02 -.640E+02 0.117E+01   -.536E+02 0.637E+02 -.109E+01   0.420E+00 -.790E-01 -.498E-01   0.408E-03 -.418E-03 -.722E-04
   -.936E+01 -.241E+02 0.208E+02   0.965E+01 0.242E+02 -.209E+02   -.432E+00 -.855E-01 0.781E-01   -.835E-03 -.464E-03 0.823E-04
   -.178E+02 -.572E+01 -.888E+01   0.179E+02 0.551E+01 0.879E+01   -.295E+00 0.577E-01 -.417E-01   0.735E-03 0.613E-03 -.513E-03
   -.341E+02 -.939E+02 0.309E+02   0.341E+02 0.934E+02 -.308E+02   -.124E+00 0.889E-03 0.465E-01   0.913E-05 -.245E-03 0.496E-03
   0.503E+01 0.733E+02 0.522E+02   -.481E+01 -.730E+02 -.522E+02   0.483E-01 0.189E+00 0.893E-01   -.645E-03 -.346E-03 -.505E-03
   -.811E+01 0.450E+01 -.712E+01   0.774E+01 -.433E+01 0.691E+01   0.207E+00 -.904E-02 -.372E-01   0.334E-03 -.441E-03 -.379E-03
   -.106E+02 -.581E+02 0.413E+02   0.108E+02 0.574E+02 -.410E+02   0.197E-01 -.580E-01 0.357E-01   -.303E-03 0.140E-03 -.341E-03
   -.694E+01 0.505E+02 -.870E+00   0.758E+01 -.501E+02 0.859E+00   -.200E+00 0.309E-01 0.397E-01   0.122E-03 0.393E-03 0.512E-04
   -.101E+02 -.111E+02 0.580E+01   0.966E+01 0.108E+02 -.562E+01   0.673E-01 0.421E-01 0.246E-02   0.343E-03 0.336E-03 0.409E-03
   0.120E+01 -.501E+02 -.492E+02   -.103E+01 0.496E+02 0.488E+02   -.471E-01 -.593E-01 -.866E-01   -.479E-03 0.120E-03 -.233E-03
   0.419E+02 0.190E+02 -.164E+02   -.421E+02 -.190E+02 0.164E+02   0.227E+00 0.429E-01 -.553E-01   -.377E-03 0.396E-03 -.884E-04
   0.483E+01 0.308E+01 0.217E+01   -.485E+01 -.301E+01 -.215E+01   -.860E-01 -.376E-01 0.349E-01   0.598E-03 -.268E-03 0.120E-03
   0.160E+02 -.501E+02 0.492E+02   -.161E+02 0.496E+02 -.488E+02   0.890E-01 -.830E-01 0.115E+00   -.238E-03 0.104E-03 0.258E-03
   -.269E+02 0.741E+02 -.244E+02   0.268E+02 -.734E+02 0.242E+02   -.134E+00 -.852E-02 -.419E-01   -.288E-03 0.357E-03 -.450E-03
   0.220E+02 0.241E+02 0.208E+02   -.220E+02 -.242E+02 -.209E+02   -.856E-01 -.807E-02 0.154E-01   -.699E-03 0.513E-03 0.957E-04
   0.178E+02 0.736E+02 -.524E+02   -.178E+02 -.730E+02 0.522E+02   0.307E+00 0.107E+00 -.614E-02   -.716E-04 -.366E-03 0.496E-03
   0.220E+02 -.242E+02 -.209E+02   -.220E+02 0.242E+02 0.209E+02   -.247E-01 0.202E-01 -.826E-02   -.727E-03 -.485E-03 -.101E-03
   -.299E+02 0.635E+02 0.624E+02   0.303E+02 -.632E+02 -.621E+02   -.320E+00 0.969E-01 0.643E-01   -.395E-03 -.224E-03 0.165E-03
   0.248E+02 -.386E+01 0.274E+01   -.248E+02 0.383E+01 -.273E+01   -.505E-02 0.266E-01 -.267E-01   0.707E-03 0.321E-03 0.138E-03
   -.753E+01 0.563E+01 0.887E+01   0.736E+01 -.551E+01 -.879E+01   -.515E-02 0.466E-01 0.997E-01   0.122E-02 -.539E-03 0.463E-03
   -.101E+02 -.571E+01 0.894E+01   0.985E+01 0.551E+01 -.879E+01   0.629E-01 -.268E-01 0.557E-01   0.815E-03 0.558E-03 0.477E-03
   0.615E+01 -.384E+01 -.272E+01   -.617E+01 0.383E+01 0.273E+01   -.785E-02 0.150E-01 0.723E-03   0.351E-03 0.355E-03 -.125E-03
 -----------------------------------------------------------------------------------------------
   0.374E+00 -.137E+00 -.552E-01   0.639E-13 0.888E-13 -.227E-12   -.374E+00 0.138E+00 0.551E-01   0.252E-03 -.367E-03 0.128E-03
 
 
 POSITION                                       TOTAL-FORCE (eV/Angst)
 -----------------------------------------------------------------------------------
      6.58000      0.00000      0.00000        -0.081593      0.025016     -0.072179
      9.87000      0.00000      0.00000         0.152347      0.230910      0.100261
      9.87000      3.29000      3.29000        -0.228319     -0.164786     -0.121353
     11.51500      4.93500      4.93500         0.407754      0.436569     -0.018652
     11.51500      1.64500      1.64500         0.304111     -0.331811     -0.006343
      1.64500      4.93500      4.93500        -0.078705      0.404157      0.145513
      9.87000      0.00000      3.29000        -0.237487      0.191437     -0.177250
      1.64500      1.64500      1.64500        -0.223671     -0.506542     -0.122140
      0.00000      3.29000      0.00000         0.172623     -0.344988     -0.126819
      3.29000      0.00000      0.00000        -0.225592      0.319605     -0.299869
     11.51500      1.64500      4.93500         0.466292     -0.363458      0.023637
      4.93500      1.64500      4.93500        -0.146111     -0.044440      0.018033
      8.22500      4.93500      4.93500        -0.208190     -0.149376     -0.132502
      1.64500      1.64500      4.93500        -0.174736     -0.561737      0.151311
      0.00000      0.00000      3.29000         0.261286      0.472238      0.136001
      8.22500      1.64500      4.93500        -0.166712      0.159481     -0.243213
      0.00000      3.29000      3.29000         0.279067     -0.785649      0.321674
     11.51500      4.93500      1.64500         0.441157      0.486384      0.029345
      9.87000      3.29000      0.00000        -0.361454     -0.233910      0.182131
      3.29000      3.29000      0.00000         0.123915     -0.546450     -0.567319
      4.93500      4.93500      1.64500         0.018949      0.075820     -0.069595
      6.58000      0.00000      3.29000        -0.105323      0.029709      0.056789
      3.29000      3.29000      3.29000         0.018683     -0.509799      0.531534
      1.64500      4.93500      1.64500        -0.299051      0.737043     -0.260974
      4.93500      4.93500      4.93500        -0.053283     -0.016750     -0.009743
      0.00000      0.00000      0.00000         0.273418      0.662314     -0.214479
      4.93500      1.64500      1.64500        -0.010346     -0.023911      0.006372
      3.29000      0.00000      3.29000         0.073425      0.409044      0.379400
      6.58000      3.29000      3.29000         0.007846     -0.001518     -0.025406
      8.22500      1.64500      1.64500        -0.176449      0.162207      0.173638
      8.22500      4.93500      1.64500        -0.193059     -0.222428      0.197969
      6.58000      3.29000      0.00000        -0.030793      0.005620      0.014229
 -----------------------------------------------------------------------------------
    total drift:                               -0.000078     -0.000043      0.000001


--------------------------------------------------------------------------------------------------------



  FREE ENERGIE OF THE ION-ELECTRON SYSTEM (eV)
  ---------------------------------------------------
  free  energy   TOTEN  =      -372.26759863 eV

  energy  without entropy=     -372.26426554  energy(sigma->0) =     -372.26593209
 


--------------------------------------------------------------------------------------------------------


    POTLOK:  cpu time      0.3158: real time      0.3171


--------------------------------------------------------------------------------------------------------


     LOOP+:  cpu time    282.0484: real time    288.3654
    4ORBIT:  cpu time      0.0000: real time      0.0000

 total amount of memory used by VASP MPI-rank0    61379. kBytes
=======================================================================

   base      :      30000. kBytes
   nonl-proj :       9945. kBytes
   fftplans  :        778. kBytes
   grid      :       1458. kBytes
   one-center:         46. kBytes
   wavefun   :      19152. kBytes
 
  
  
 General timing and accounting informations for this job:
 ========================================================
  
                  Total CPU time used (sec):      298.535
                            User time (sec):      294.187
                          System time (sec):        4.348
                         Elapsed time (sec):      308.865
  
                   Maximum memory used (kb):      106820.
                   Average memory used (kb):          N/A
  
                          Minor page faults:        14900
                          Major page faults:            0
                 Voluntary context switches:          269
