 vasp.6.3.1 04May22 (build Jul 26 2022 04:02:40) complex                        
  
 executed on             LinuxIFC date 2023.11.30  03:01:30
 running on   48 total cores
 distrk:  each k-point on   48 cores,    1 groups
 distr:  one band on NCORE=  12 cores,    4 groups


--------------------------------------------------------------------------------------------------------


 INCAR:
   ISTART = 0
   NWRITE = 2
   PREC = Accurate
   ENCUT = 250
   GGA = PE
   NSW = 0
   ISIF = 2
   ISYM = 2
   NBLOCK = 1
   KBLOCK = 1
   IBRION = -1
   NELM = 80
   EDIFF = 1E-08
   EDIFFG = -0.01
   ALGO = Normal
   LDIAG = .TRUE.
   LREAL = .FALSE.
   ISMEAR = 0
   SIGMA = 0.02
   ICHARG = 2
   LPLANE = .TRUE.
   NPAR = 4
   LSCALU = .FALSE.
   NSIM = 4
   LWAVE = .FALSE.
   LCHARG = .FALSE.
   ICORELEVEL = 1

 POTCAR:    PAW_PBE Nb_sv 25May2007               
 POTCAR:    PAW_PBE Mo_sv 02Feb2006               
 POTCAR:    PAW_PBE Ta_pv 07Sep2000               
 POTCAR:    PAW_PBE W_sv 04Sep2015                
 POTCAR:    PAW_PBE Nb_sv 25May2007               
   SHA256 =  0e8fc07c9fcd1164cf2ade22d0399fd28f85e91cd773dfa6cf24839a48c95e24 Nb_sv/POTCAR          
   COPYR  = (c) Copyright 25May2007 Georg Kresse                                                    
   COPYR  = This file is part of the software VASP. Any use, copying, and all other rights are regul
   COPYR  = If you do not have a valid VASP license, you may not use, copy or distribute this file. 
   VRHFIN =Nb: 4p5s4d                                                                               
   LEXCH  = PE                                                                                      
   EATOM  =  1555.1913 eV,  114.3033 Ry                                                             
                                                                                                    
   TITEL  = PAW_PBE Nb_sv 25May2007                                                                 
   LULTRA =        F    use ultrasoft PP ?                                                          
   IUNSCR =        1    unscreen: 0-lin 1-nonlin 2-no                                               
   RPACOR =    1.800    partial core radius                                                         
   POMASS =   92.910; ZVAL   =   13.000    mass and valenz                                          
   RCORE  =    2.400    outmost cutoff radius                                                       
   RWIGS  =    2.400; RWIGS  =    1.270    wigner-seitz radius (au A)                               
   ENMAX  =  293.235; ENMIN  =  219.927 eV                                                          
   ICORE  =        3    local potential                                                             
   LCOR   =        T    correct aug charges                                                         
   LPAW   =        T    paw PP                                                                      
   EAUG   =  455.659                                                                                
   DEXC   =    0.000                                                                                
   RMAX   =    2.456    core radius for proj-oper                                                   
   RAUG   =    1.300    factor for augmentation sphere                                              
   RDEP   =    2.451    radius for radial grids                                                     
   RDEPT  =    1.956    core radius for aug-charge                                                  
                                                                                                    
   Atomic configuration                                                                             
   11 entries                                                                                       
     n  l   j            E        occ.                                                              
     1  0  0.50    -18805.2457   2.0000                                                             
     2  0  0.50     -2630.2869   2.0000                                                             
     2  1  1.50     -2348.4046   6.0000                                                             
     3  0  0.50      -438.8757   2.0000                                                             
     3  1  1.50      -346.7588   6.0000                                                             
     3  2  2.50      -196.2560  10.0000                                                             
     4  0  0.50       -58.3859   2.0000                                                             
     5  0  0.50        -3.9816   1.0000                                                             
     4  1  1.50       -34.5141   6.0000                                                             
     4  2  2.50        -3.0408   4.0000                                                             
     4  3  2.50        -1.3606   0.0000                                                             
   Description                                                                                      
     l       E           TYP  RCUT    TYP  RCUT                                                     
     0    -58.3859094     23  2.200                                                                 
     0     -3.9816262     23  2.200                                                                 
     1    -34.5140738     23  2.200                                                                 
     1     13.6058260     23  2.200                                                                 
     2     -3.0408010     23  2.200                                                                 
     2     -0.1283038     23  2.200                                                                 
     3     -1.3605826     23  2.400                                                                 
  local pseudopotential read in
  partial core-charges read in
  partial kinetic energy density read in
  atomic valenz-charges read in
  non local Contribution for L=           0  read in
    real space projection operators read in
  non local Contribution for L=           0  read in
    real space projection operators read in
  non local Contribution for L=           1  read in
    real space projection operators read in
  non local Contribution for L=           1  read in
    real space projection operators read in
  non local Contribution for L=           2  read in
    real space projection operators read in
  non local Contribution for L=           2  read in
    real space projection operators read in
    PAW grid and wavefunctions read in
 
   number of l-projection  operators is LMAX  =           6
   number of lm-projection operators is LMMAX =          18
 
 POTCAR:    PAW_PBE Mo_sv 02Feb2006               
   SHA256 =  2731df97e41766cc617548c5a8267718fdef1f509ac6bafa01e745abea2bdfaa Mo_sv/POTCAR          
   COPYR  = (c) Copyright 02Feb2006 Georg Kresse                                                    
   COPYR  = This file is part of the software VASP. Any use, copying, and all other rights are regul
   COPYR  = If you do not have a valid VASP license, you may not use, copy or distribute this file. 
   VRHFIN =Mo: 4p5s4d                                                                               
   LEXCH  = PE                                                                                      
   EATOM  =  1862.2866 eV,  136.8742 Ry                                                             
                                                                                                    
   TITEL  = PAW_PBE Mo_sv 02Feb2006                                                                 
   LULTRA =        F    use ultrasoft PP ?                                                          
   IUNSCR =        1    unscreen: 0-lin 1-nonlin 2-no                                               
   RPACOR =    2.200    partial core radius                                                         
   POMASS =   95.940; ZVAL   =   14.000    mass and valenz                                          
   RCORE  =    2.500    outmost cutoff radius                                                       
   RWIGS  =    2.750; RWIGS  =    1.455    wigner-seitz radius (au A)                               
   ENMAX  =  242.676; ENMIN  =  182.007 eV                                                          
   ICORE  =        3    local potential                                                             
   LCOR   =        T    correct aug charges                                                         
   LPAW   =        T    paw PP                                                                      
   EAUG   =  446.014                                                                                
   DEXC   =    0.000                                                                                
   RMAX   =    2.563    core radius for proj-oper                                                   
   RAUG   =    1.300    factor for augmentation sphere                                              
   RDEP   =    2.641    radius for radial grids                                                     
   RDEPT  =    2.031    core radius for aug-charge                                                  
                                                                                                    
   Atomic configuration                                                                             
   11 entries                                                                                       
     n  l   j            E        occ.                                                              
     1  0  0.50    -19819.0341   2.0000                                                             
     2  0  0.50     -2799.0127   2.0000                                                             
     2  1  1.50     -2502.0276   6.0000                                                             
     3  0  0.50      -476.4449   2.0000                                                             
     3  1  1.50      -379.1496   6.0000                                                             
     3  2  2.50      -220.9367  10.0000                                                             
     4  0  0.50       -64.3378   2.0000                                                             
     5  0  0.50        -4.0862   1.0000                                                             
     4  1  1.50       -38.4773   6.0000                                                             
     4  2  2.50        -3.7535   5.0000                                                             
     4  3  2.50        -1.3606   0.0000                                                             
   Description                                                                                      
     l       E           TYP  RCUT    TYP  RCUT                                                     
     0    -64.3377829     23  2.100                                                                 
     0     -4.0861640     23  2.400                                                                 
     1    -38.4772993     23  2.100                                                                 
     1     13.6058260     23  2.100                                                                 
     2     -3.7534941     23  2.400                                                                 
     2     -5.1140767     23  2.400                                                                 
     3     -4.0817478     23  2.500                                                                 
  local pseudopotential read in
  partial core-charges read in
  partial kinetic energy density read in
  atomic valenz-charges read in
  non local Contribution for L=           0  read in
    real space projection operators read in
  non local Contribution for L=           0  read in
    real space projection operators read in
  non local Contribution for L=           1  read in
    real space projection operators read in
  non local Contribution for L=           1  read in
    real space projection operators read in
  non local Contribution for L=           2  read in
    real space projection operators read in
  non local Contribution for L=           2  read in
    real space projection operators read in
    PAW grid and wavefunctions read in
 
   number of l-projection  operators is LMAX  =           6
   number of lm-projection operators is LMMAX =          18
 
 POTCAR:    PAW_PBE Ta_pv 07Sep2000               
   SHA256 =  00d0a14a36c127416459414afb8617d9754996fffa60a2465888e660b20a452f Ta_pv/POTCAR          
   COPYR  = (c) Copyright 07Sep2000 Georg Kresse                                                    
   COPYR  = This file is part of the software VASP. Any use, copying, and all other rights are regul
   COPYR  = If you do not have a valid VASP license, you may not use, copy or distribute this file. 
   VRHFIN =Ta:  5p6s5d                                                                              
   LEXCH  = PE                                                                                      
   EATOM  =  1047.1984 eV,   76.9669 Ry                                                             
                                                                                                    
   TITEL  = PAW_PBE Ta_pv 07Sep2000                                                                 
   LULTRA =        F    use ultrasoft PP ?                                                          
   IUNSCR =        1    unscreen: 0-lin 1-nonlin 2-no                                               
   RPACOR =    2.330    partial core radius                                                         
   POMASS =  180.948; ZVAL   =   11.000    mass and valenz                                          
   RCORE  =    2.500    outmost cutoff radius                                                       
   RWIGS  =    2.840; RWIGS  =    1.503    wigner-seitz radius (au A)                               
   ENMAX  =  223.667; ENMIN  =  167.750 eV                                                          
   RCLOC  =    2.205    cutoff for local pot                                                        
   LCOR   =        T    correct aug charges                                                         
   LPAW   =        T    paw PP                                                                      
   EAUG   =  377.421                                                                                
   DEXC   =    0.000                                                                                
   RMAX   =    2.551    core radius for proj-oper                                                   
   RAUG   =    1.300    factor for augmentation sphere                                              
   RDEP   =    2.526    radius for radial grids                                                     
   RDEPT  =    2.132    core radius for aug-charge                                                  
                                                                                                    
   Atomic configuration                                                                             
   15 entries                                                                                       
     n  l   j            E        occ.                                                              
     1  0  0.50    -67341.2801   2.0000                                                             
     2  0  0.50    -11566.9369   2.0000                                                             
     2  1  1.50    -10134.1175   6.0000                                                             
     3  0  0.50     -2648.5614   2.0000                                                             
     3  1  1.50     -2222.6006   6.0000                                                             
     3  2  2.50     -1726.3114  10.0000                                                             
     4  0  0.50      -538.6957   2.0000                                                             
     4  1  1.50      -399.0125   6.0000                                                             
     4  2  2.50      -220.3955  10.0000                                                             
     4  3  3.50       -23.0371  14.0000                                                             
     5  0  0.50       -71.2900   2.0000                                                             
     5  1  1.50       -37.8224   6.0000                                                             
     5  2  2.50        -2.6455   4.0000                                                             
     6  0  0.50        -4.9623   1.0000                                                             
     5  3  2.50        -1.3606   0.0000                                                             
   Description                                                                                      
     l       E           TYP  RCUT    TYP  RCUT                                                     
     1    -37.8224449     23  2.500                                                                 
     1      1.3605826     23  2.500                                                                 
     2     -2.6454718     23  2.500                                                                 
     2     -0.6258570     23  2.500                                                                 
     0     -4.9622674     23  2.500                                                                 
     0      4.7531427     23  2.500                                                                 
  local pseudopotential read in
  partial core-charges read in
  partial kinetic energy density read in
  atomic valenz-charges read in
  non local Contribution for L=           1  read in
    real space projection operators read in
  non local Contribution for L=           1  read in
    real space projection operators read in
  non local Contribution for L=           2  read in
    real space projection operators read in
  non local Contribution for L=           2  read in
    real space projection operators read in
  non local Contribution for L=           0  read in
    real space projection operators read in
  non local Contribution for L=           0  read in
    real space projection operators read in
    PAW grid and wavefunctions read in
 
   number of l-projection  operators is LMAX  =           6
   number of lm-projection operators is LMMAX =          18
 
 POTCAR:    PAW_PBE W_sv 04Sep2015                
   SHA256 =  931c2d770f65867ef30f3db3421922900fc0890ebac5c3e12f63b6a2064023d7 W_sv/POTCAR           
   COPYR  = (c) Copyright 04Sep2015 Georg Kresse                                                    
   COPYR  = This file is part of the software VASP. Any use, copying, and all other rights are regul
   COPYR  = If you do not have a valid VASP license, you may not use, copy or distribute this file. 
   VRHFIN =W : 5p6s5d                                                                               
   LEXCH  = PE                                                                                      
   EATOM  =  1865.5791 eV,  137.1162 Ry                                                             
                                                                                                    
   TITEL  = PAW_PBE W_sv 04Sep2015                                                                  
   LULTRA =        F    use ultrasoft PP ?                                                          
   IUNSCR =        1    unscreen: 0-lin 1-nonlin 2-no                                               
   RPACOR =    2.330    partial core radius                                                         
   POMASS =  183.850; ZVAL   =   14.000    mass and valenz                                          
   RCORE  =    2.500    outmost cutoff radius                                                       
   RWIGS  =    2.750; RWIGS  =    1.455    wigner-seitz radius (au A)                               
   ENMAX  =  223.057; ENMIN  =  167.293 eV                                                          
   ICORE  =        3    local potential                                                             
   LCOR   =        T    correct aug charges                                                         
   LPAW   =        T    paw PP                                                                      
   EAUG   =  373.438                                                                                
   DEXC   =    0.000                                                                                
   RMAX   =    2.565    core radius for proj-oper                                                   
   RAUG   =    1.300    factor for augmentation sphere                                              
   RDEP   =    2.539    radius for radial grids                                                     
   RDEPT  =    2.126    core radius for aug-charge                                                  
                                                                                                    
   Atomic configuration                                                                             
   15 entries                                                                                       
     n  l   j            E        occ.                                                              
     1  0  0.50    -69465.5834   2.0000                                                             
     2  0  0.50    -11986.2640   2.0000                                                             
     2  1  1.50    -10479.8613   6.0000                                                             
     3  0  0.50     -2759.0756   2.0000                                                             
     3  1  1.50     -2313.1855   6.0000                                                             
     3  2  2.50     -1801.1183  10.0000                                                             
     4  0  0.50      -567.6789   2.0000                                                             
     4  1  1.50      -421.4692   6.0000                                                             
     4  2  2.50      -236.3471  10.0000                                                             
     4  3  3.50       -31.2665  14.0000                                                             
     5  0  0.50       -77.1084   2.0000                                                             
     6  0  0.50        -5.1438   1.0000                                                             
     5  1  1.50       -41.3856   6.0000                                                             
     5  2  2.50        -3.3185   5.0000                                                             
     5  3  2.50        -1.3606   0.0000                                                             
   Description                                                                                      
     l       E           TYP  RCUT    TYP  RCUT                                                     
     0    -77.1084470     23  2.100                                                                 
     0     -5.1437956     23  2.300                                                                 
     1    -41.3855615     23  2.500                                                                 
     1     -2.7211652     23  2.500                                                                 
     2     -3.3185025     23  2.500                                                                 
     2     -1.5965151     23  2.500                                                                 
     3     -1.3605826     23  2.500                                                                 
  local pseudopotential read in
  partial core-charges read in
  partial kinetic energy density read in
  kinetic energy density of atom read in
  atomic valenz-charges read in
  non local Contribution for L=           0  read in
    real space projection operators read in
  non local Contribution for L=           0  read in
    real space projection operators read in
  non local Contribution for L=           1  read in
    real space projection operators read in
  non local Contribution for L=           1  read in
    real space projection operators read in
  non local Contribution for L=           2  read in
    real space projection operators read in
  non local Contribution for L=           2  read in
    real space projection operators read in
    PAW grid and wavefunctions read in
 
   number of l-projection  operators is LMAX  =           6
   number of lm-projection operators is LMMAX =          18
 
  PAW_PBE Nb_sv 25May2007               :
 energy of atom  1       EATOM=-1555.1913
 kinetic energy error for atom=    0.2155 (will be added to EATOM!!)
  PAW_PBE Mo_sv 02Feb2006               :
 energy of atom  2       EATOM=-1862.2866
 kinetic energy error for atom=    0.1102 (will be added to EATOM!!)
  PAW_PBE Ta_pv 07Sep2000               :
 energy of atom  3       EATOM=-1047.1984
 kinetic energy error for atom=    0.0394 (will be added to EATOM!!)
  PAW_PBE W_sv 04Sep2015                :
 energy of atom  4       EATOM=-1865.5791
 kinetic energy error for atom=    0.0589 (will be added to EATOM!!)
 
 
 POSCAR: Nb-Mo-Ta-W alloy
  positions in direct lattice
  No initial velocities read in
 exchange correlation table for  LEXCH =        8
   RHO(1)=    0.500       N(1)  =     2000
   RHO(2)=  100.500       N(2)  =     4000
 


--------------------------------------------------------------------------------------------------------


 ion  position               nearest neighbor table
   1  0.500  0.500  0.000-   3 2.85   5 2.85   6 2.85   8 2.85   9 2.85  10 2.85  12 2.85  15 2.85

   2  0.000  0.000  0.500-   3 2.85   5 2.85   6 2.85   8 2.85   9 2.85  10 2.85  12 2.85  15 2.85

   3  0.250  0.250  0.250-   1 2.85   2 2.85   4 2.85   7 2.85  11 2.85  13 2.85  14 2.85  16 2.85
                            10 3.29   8 3.29  12 3.29  10 3.29   8 3.29  12 3.29
   4  0.000  0.500  0.000-   3 2.85   5 2.85   6 2.85   8 2.85   9 2.85  10 2.85  12 2.85  15 2.85
                            14 3.29  11 3.29  14 3.29  11 3.29
   5  0.750  0.250  0.750-   1 2.85   2 2.85   4 2.85   7 2.85  11 2.85  13 2.85  14 2.85  16 2.85
                            10 3.29   6 3.29  12 3.29  12 3.29   6 3.29  10 3.29
   6  0.750  0.750  0.750-   1 2.85   2 2.85   4 2.85   7 2.85  11 2.85  13 2.85  14 2.85  16 2.85
                             5 3.29  15 3.29   9 3.29  15 3.29   5 3.29   9 3.29
   7  0.500  0.000  0.500-   3 2.85   5 2.85   6 2.85   8 2.85   9 2.85  10 2.85  12 2.85  15 2.85
                            13 3.29  16 3.29  16 3.29  13 3.29
   8  0.250  0.750  0.250-   1 2.85   2 2.85   4 2.85   7 2.85  11 2.85  13 2.85  14 2.85  16 2.85
                             3 3.29  15 3.29   9 3.29   9 3.29   3 3.29  15 3.29
   9  0.250  0.750  0.750-   1 2.85   2 2.85   4 2.85   7 2.85  11 2.85  13 2.85  14 2.85  16 2.85
                             8 3.29  10 3.29   6 3.29   8 3.29  10 3.29   6 3.29
  10  0.250  0.250  0.750-   1 2.85   2 2.85   4 2.85   7 2.85  11 2.85  13 2.85  14 2.85  16 2.85
                             3 3.29   9 3.29   5 3.29   3 3.29   9 3.29   5 3.29
  11  0.000  0.000  0.000-   3 2.85   5 2.85   6 2.85   8 2.85   9 2.85  10 2.85  12 2.85  15 2.85
                             4 3.29  16 3.29   4 3.29  16 3.29
  12  0.750  0.250  0.250-   1 2.85   2 2.85   4 2.85   7 2.85  11 2.85  13 2.85  14 2.85  16 2.85
                             5 3.29  15 3.29   3 3.29   5 3.29  15 3.29   3 3.29
  13  0.500  0.500  0.500-   3 2.85   5 2.85   6 2.85   8 2.85   9 2.85  10 2.85  12 2.85  15 2.85
                            14 3.29   7 3.29   7 3.29  14 3.29
  14  0.000  0.500  0.500-   3 2.85   5 2.85   6 2.85   8 2.85   9 2.85  10 2.85  12 2.85  15 2.85
                            13 3.29   4 3.29   4 3.29  13 3.29
  15  0.750  0.750  0.250-   1 2.85   2 2.85   4 2.85   7 2.85  11 2.85  13 2.85  14 2.85  16 2.85
                             8 3.29   6 3.29  12 3.29   6 3.29  12 3.29   8 3.29
  16  0.500  0.000  0.000-   3 2.85   5 2.85   6 2.85   8 2.85   9 2.85  10 2.85  12 2.85  15 2.85
                             7 3.29  11 3.29   7 3.29  11 3.29
 
  LATTYP: Found a simple cubic cell.
 ALAT       =     6.5800000000
  
  Lattice vectors:
  
 A1 = (   6.5800000000,   0.0000000000,   0.0000000000)
 A2 = (   0.0000000000,   6.5800000000,   0.0000000000)
 A3 = (   0.0000000000,   0.0000000000,   6.5800000000)


Analysis of symmetry for initial positions (statically):
=====================================================================
 Subroutine PRICEL returns:
 Original cell was already a primitive cell.
 

 Routine SETGRP: Setting up the symmetry group for a 
 simple cubic supercell.


 Subroutine GETGRP returns: Found  4 space group operations
 (whereof  2 operations were pure point group operations)
 out of a pool of 48 trial point group operations.


The static configuration has the point symmetry C_1h.
 The point group associated with its full space group is C_2h.


Analysis of symmetry for dynamics (positions and initial velocities):
=====================================================================
 Subroutine PRICEL returns:
 Original cell was already a primitive cell.
 

 Routine SETGRP: Setting up the symmetry group for a 
 simple cubic supercell.


 Subroutine GETGRP returns: Found  4 space group operations
 (whereof  2 operations were pure point group operations)
 out of a pool of 48 trial point group operations.


The dynamic configuration has the point symmetry C_1h.
 The point group associated with its full space group is C_2h.


 Subroutine INISYM returns: Found  4 space group operations
 (whereof  2 operations are pure point group operations),
 and found     1 'primitive' translations


----------------------------------------------------------------------------------------

                                     Primitive cell                                     

  volume of cell :     284.8903

  direct lattice vectors                    reciprocal lattice vectors
     6.580000000  0.000000000  0.000000000     0.151975684  0.000000000  0.000000000
     0.000000000  6.580000000  0.000000000     0.000000000  0.151975684  0.000000000
     0.000000000  0.000000000  6.580000000     0.000000000  0.000000000  0.151975684

  length of vectors
     6.580000000  6.580000000  6.580000000     0.151975684  0.151975684  0.151975684

  position of ions in fractional coordinates (direct lattice)
     0.500000000  0.500000000  0.000000000
     0.000000000  0.000000000  0.500000000
     0.250000000  0.250000000  0.250000000
     0.000000000  0.500000000  0.000000000
     0.750000000  0.250000000  0.750000000
     0.750000000  0.750000000  0.750000000
     0.500000000  0.000000000  0.500000000
     0.250000000  0.750000000  0.250000000
     0.250000000  0.750000000  0.750000000
     0.250000000  0.250000000  0.750000000
     0.000000000  0.000000000  0.000000000
     0.750000000  0.250000000  0.250000000
     0.500000000  0.500000000  0.500000000
     0.000000000  0.500000000  0.500000000
     0.750000000  0.750000000  0.250000000
     0.500000000  0.000000000  0.000000000

  ion indices of the primitive-cell ions
   primitive index   ion index
                 1           1
                 2           2
                 3           3
                 4           4
                 5           5
                 6           6
                 7           7
                 8           8
                 9           9
                10          10
                11          11
                12          12
                13          13
                14          14
                15          15
                16          16

----------------------------------------------------------------------------------------

 
 
 KPOINTS: K-Spacing Value to Generate K-Mesh: 0.03

Automatic generation of k-mesh.
 Grid dimensions read from file:
 generate k-points for:    5    5    5

 Generating k-lattice:

  Cartesian coordinates                     Fractional coordinates (reciprocal lattice)
     0.030395137  0.000000000  0.000000000     0.200000000  0.000000000  0.000000000
     0.000000000  0.030395137  0.000000000     0.000000000  0.200000000  0.000000000
     0.000000000  0.000000000  0.030395137     0.000000000  0.000000000  0.200000000

  Length of vectors
     0.030395137  0.030395137  0.030395137

  Shift w.r.t. Gamma in fractional coordinates (k-lattice)
     0.000000000  0.000000000  0.000000000

 
 Subroutine IBZKPT returns following result:
 ===========================================
 
 Found     39 irreducible k-points:
 
 Following reciprocal coordinates:
            Coordinates               Weight
  0.000000  0.000000  0.000000      1.000000
  0.200000  0.000000  0.000000      2.000000
  0.000000  0.200000  0.000000      2.000000
  0.000000  0.000000  0.200000      2.000000
  0.400000  0.000000  0.000000      2.000000
  0.000000  0.400000  0.000000      2.000000
  0.000000  0.000000  0.400000      2.000000
  0.200000  0.200000  0.000000      4.000000
  0.000000  0.200000  0.200000      4.000000
  0.200000  0.000000  0.200000      2.000000
 -0.200000  0.000000  0.200000      2.000000
  0.400000  0.200000  0.000000      4.000000
  0.000000  0.400000  0.200000      4.000000
  0.200000  0.000000  0.400000      2.000000
 -0.200000  0.400000  0.000000      4.000000
 -0.400000  0.000000  0.200000      2.000000
  0.000000  0.200000  0.400000      4.000000
 -0.200000  0.000000  0.400000      2.000000
  0.400000  0.000000  0.200000      2.000000
  0.400000  0.400000  0.000000      4.000000
  0.000000  0.400000  0.400000      4.000000
  0.400000  0.000000  0.400000      2.000000
 -0.400000  0.000000  0.400000      2.000000
  0.200000  0.200000  0.200000      4.000000
 -0.200000  0.200000  0.200000      4.000000
  0.400000  0.200000  0.200000      4.000000
  0.200000  0.400000  0.200000      4.000000
  0.200000  0.200000  0.400000      4.000000
 -0.200000  0.400000  0.200000      4.000000
 -0.400000  0.200000  0.200000      4.000000
 -0.200000  0.200000  0.400000      4.000000
  0.400000  0.400000  0.200000      4.000000
  0.200000  0.400000  0.400000      4.000000
  0.400000  0.200000  0.400000      4.000000
 -0.400000  0.400000  0.200000      4.000000
 -0.400000  0.200000  0.400000      4.000000
 -0.200000  0.400000  0.400000      4.000000
  0.400000  0.400000  0.400000      4.000000
 -0.400000  0.400000  0.400000      4.000000
 
 Following cartesian coordinates:
            Coordinates               Weight
  0.000000  0.000000  0.000000      1.000000
  0.030395  0.000000  0.000000      2.000000
  0.000000  0.030395  0.000000      2.000000
  0.000000  0.000000  0.030395      2.000000
  0.060790  0.000000  0.000000      2.000000
  0.000000  0.060790  0.000000      2.000000
  0.000000  0.000000  0.060790      2.000000
  0.030395  0.030395  0.000000      4.000000
  0.000000  0.030395  0.030395      4.000000
  0.030395  0.000000  0.030395      2.000000
 -0.030395  0.000000  0.030395      2.000000
  0.060790  0.030395  0.000000      4.000000
  0.000000  0.060790  0.030395      4.000000
  0.030395  0.000000  0.060790      2.000000
 -0.030395  0.060790  0.000000      4.000000
 -0.060790  0.000000  0.030395      2.000000
  0.000000  0.030395  0.060790      4.000000
 -0.030395  0.000000  0.060790      2.000000
  0.060790  0.000000  0.030395      2.000000
  0.060790  0.060790  0.000000      4.000000
  0.000000  0.060790  0.060790      4.000000
  0.060790  0.000000  0.060790      2.000000
 -0.060790  0.000000  0.060790      2.000000
  0.030395  0.030395  0.030395      4.000000
 -0.030395  0.030395  0.030395      4.000000
  0.060790  0.030395  0.030395      4.000000
  0.030395  0.060790  0.030395      4.000000
  0.030395  0.030395  0.060790      4.000000
 -0.030395  0.060790  0.030395      4.000000
 -0.060790  0.030395  0.030395      4.000000
 -0.030395  0.030395  0.060790      4.000000
  0.060790  0.060790  0.030395      4.000000
  0.030395  0.060790  0.060790      4.000000
  0.060790  0.030395  0.060790      4.000000
 -0.060790  0.060790  0.030395      4.000000
 -0.060790  0.030395  0.060790      4.000000
 -0.030395  0.060790  0.060790      4.000000
  0.060790  0.060790  0.060790      4.000000
 -0.060790  0.060790  0.060790      4.000000
 


--------------------------------------------------------------------------------------------------------




 Dimension of arrays:
   k-points           NKPTS =     39   k-points in BZ     NKDIM =     39   number of bands    NBANDS=    132
   number of dos      NEDOS =    301   number of ions     NIONS =     16
   non local maximal  LDIM  =      6   non local SUM 2l+1 LMDIM =     18
   total plane-waves  NPLWV =  46656
   max r-space proj   IRMAX =      1   max aug-charges    IRDMAX=   9546
   dimension x,y,z NGX =    36 NGY =   36 NGZ =   36
   dimension x,y,z NGXF=    72 NGYF=   72 NGZF=   72
   support grid    NGXF=    72 NGYF=   72 NGZF=   72
   ions per type =               2   6   2   6
   NGX,Y,Z   is equivalent  to a cutoff of   9.10,  9.10,  9.10 a.u.
   NGXF,Y,Z  is equivalent  to a cutoff of  18.19, 18.19, 18.19 a.u.

 SYSTEM =  unknown system                          
 POSCAR =  Nb-Mo-Ta-W alloy                        

 Startparameter for this run:
   NWRITE =      2    write-flag & timer
   PREC   = accura    normal or accurate (medium, high low for compatibility)
   ISTART =      0    job   : 0-new  1-cont  2-samecut
   ICHARG =      2    charge: 1-file 2-atom 10-const
   ISPIN  =      1    spin polarized calculation?
   LNONCOLLINEAR =      F non collinear calculations
   LSORBIT =      F    spin-orbit coupling
   INIWAV =      1    electr: 0-lowe 1-rand  2-diag
   LASPH  =      F    aspherical Exc in radial PAW
 Electronic Relaxation 1
   ENCUT  =  250.0 eV  18.37 Ry    4.29 a.u.   8.48  8.48  8.48*2*pi/ulx,y,z
   ENINI  =  250.0     initial cutoff
   ENAUG  =  455.7 eV  augmentation charge cutoff
   NELM   =     80;   NELMIN=  2; NELMDL= -5     # of ELM steps 
   EDIFF  = 0.1E-07   stopping-criterion for ELM
   LREAL  =      F    real-space projection
   NLSPLINE    = F    spline interpolate recip. space projectors
   LCOMPAT=      F    compatible to vasp.4.4
   GGA_COMPAT  = T    GGA compatible to vasp.4.4-vasp.4.6
   LMAXPAW     = -100 max onsite density
   LMAXMIX     =    2 max onsite mixed and CHGCAR
   VOSKOWN=      0    Vosko Wilk Nusair interpolation
   ROPT   =    0.00000   0.00000   0.00000   0.00000
 Ionic relaxation
   EDIFFG = -.1E-01   stopping-criterion for IOM
   NSW    =      0    number of steps for IOM
   NBLOCK =      1;   KBLOCK =      1    inner block; outer block 
   IBRION =     -1    ionic relax: 0-MD 1-quasi-New 2-CG
   NFREE  =      0    steps in history (QN), initial steepest desc. (CG)
   ISIF   =      2    stress and relaxation
   IWAVPR =     10    prediction:  0-non 1-charg 2-wave 3-comb
   ISYM   =      2    0-nonsym 1-usesym 2-fastsym
   LCORR  =      T    Harris-Foulkes like correction to forces

   POTIM  = 0.5000    time-step for ionic-motion
   TEIN   =    0.0    initial temperature
   TEBEG  =    0.0;   TEEND  =   0.0 temperature during run
   SMASS  =  -3.00    Nose mass-parameter (am)
   estimated Nose-frequenzy (Omega)   =  0.10E-29 period in steps = 0.13E+47 mass=  -0.989E-27a.u.
   SCALEE = 1.0000    scale energy and forces
   NPACO  =    256;   APACO  = 10.0  distance and # of slots for P.C.
   PSTRESS=    0.0 pullay stress

  Mass of Ions in am
   POMASS =  92.91 95.94180.95183.85
  Ionic Valenz
   ZVAL   =  13.00 14.00 11.00 14.00
  Atomic Wigner-Seitz radii
   RWIGS  =  -1.00 -1.00 -1.00 -1.00
  virtual crystal weights 
   VCA    =   1.00  1.00  1.00  1.00
   NELECT =     216.0000    total number of electrons
   NUPDOWN=      -1.0000    fix difference up-down

 DOS related values:
   EMIN   =  10.00;   EMAX   =-10.00  energy-range for DOS
   EFERMI =   0.00
   ISMEAR =     0;   SIGMA  =   0.02  broadening in eV -4-tet -1-fermi 0-gaus

 Electronic relaxation 2 (details)
   IALGO  =     38    algorithm
   LDIAG  =      T    sub-space diagonalisation (order eigenvalues)
   LSUBROT=      F    optimize rotation matrix (better conditioning)
   TURBO    =      0    0=normal 1=particle mesh
   IRESTART =      0    0=no restart 2=restart with 2 vectors
   NREBOOT  =      0    no. of reboots
   NMIN     =      0    reboot dimension
   EREF     =   0.00    reference energy to select bands
   IMIX   =      4    mixing-type and parameters
     AMIX     =   0.40;   BMIX     =  1.00
     AMIX_MAG =   1.60;   BMIX_MAG =  1.00
     AMIN     =   0.10
     WC   =   100.;   INIMIX=   1;  MIXPRE=   1;  MAXMIX= -45

 Intra band minimization:
   WEIMIN = 0.0000     energy-eigenvalue tresh-hold
   EBREAK =  0.19E-10  absolut break condition
   DEPER  =   0.30     relativ break condition  

   TIME   =   0.40     timestep for ELM

  volume/ion in A,a.u.               =      17.81       120.16
  Fermi-wavevector in a.u.,A,eV,Ry     =   1.492795  2.820974 30.319727  2.228437
  Thomas-Fermi vector in A             =   2.605278
 
 Write flags
   LWAVE        =      F    write WAVECAR
   LDOWNSAMPLE  =      F    k-point downsampling of WAVECAR
   LCHARG       =      F    write CHGCAR
   LVTOT        =      F    write LOCPOT, total local potential
   LVHAR        =      F    write LOCPOT, Hartree potential only
   LELF         =      F    write electronic localiz. function (ELF)
   LORBIT       =      0    0 simple, 1 ext, 2 COOP (PROOUT), +10 PAW based schemes


 Dipole corrections
   LMONO  =      F    monopole corrections only (constant potential shift)
   LDIPOL =      F    correct potential (dipole corrections)
   IDIPOL =      0    1-x, 2-y, 3-z, 4-all directions 
   EPSILON=  1.0000000 bulk dielectric constant

 Core level calculations are selected ICORELEVEL =  1
 Exchange correlation treatment:
   GGA     =    PE    GGA type
   LEXCH   =     8    internal setting for exchange type
   LIBXC   =     F    Libxc                    
   VOSKOWN =     0    Vosko Wilk Nusair interpolation
   LHFCALC =     F    Hartree Fock is set to
   LHFONE  =     F    Hartree Fock one center treatment
   AEXX    =    0.0000 exact exchange contribution

 Linear response parameters
   LEPSILON=     F    determine dielectric tensor
   LRPA    =     F    only Hartree local field effects (RPA)
   LNABLA  =     F    use nabla operator in PAW spheres
   LVEL    =     F    velocity operator in full k-point grid
   CSHIFT  =0.1000    complex shift for real part using Kramers Kronig
   OMEGAMAX=  -1.0    maximum frequency
   DEG_THRESHOLD= 0.2000000E-02 threshold for treating states as degnerate
   RTIME   =   -0.100 relaxation time in fs
  (WPLASMAI=    0.000 imaginary part of plasma frequency in eV, 0.658/RTIME)
   DFIELD  = 0.0000000 0.0000000 0.0000000 field for delta impulse in time
 
  Optional k-point grid parameters
   LKPOINTS_OPT  =     F    use optional k-point grid
   KPOINTS_OPT_MODE=     1    mode for optional k-point grid
 
 Orbital magnetization related:
   ORBITALMAG=     F  switch on orbital magnetization
   LCHIMAG   =     F  perturbation theory with respect to B field
   DQ        =  0.001000  dq finite difference perturbation B field
   LLRAUG    =     F  two centre corrections for induced B field



--------------------------------------------------------------------------------------------------------


 Static calculation
 charge density and potential will be updated during run
 non-spin polarized calculation
 Variant of blocked Davidson
 Davidson routine will perform the subspace rotation
 perform sub-space diagonalisation
    after iterative eigenvector-optimisation
 modified Broyden-mixing scheme, WC =      100.0
 initial mixing is a Kerker type mixing with AMIX =  0.4000 and BMIX =      1.0000
 Hartree-type preconditioning will be used
 using additional bands           24
 reciprocal scheme for non local part
 use partial core corrections
 calculate Harris-corrections to forces 
   (improved forces if not selfconsistent)
 use gradient corrections 
 use of overlap-Matrix (Vanderbilt PP)
 Gauss-broadening in eV      SIGMA  =   0.02


--------------------------------------------------------------------------------------------------------


  energy-cutoff  :      250.00
  volume of cell :      284.89
      direct lattice vectors                 reciprocal lattice vectors
     6.580000000  0.000000000  0.000000000     0.151975684  0.000000000  0.000000000
     0.000000000  6.580000000  0.000000000     0.000000000  0.151975684  0.000000000
     0.000000000  0.000000000  6.580000000     0.000000000  0.000000000  0.151975684

  length of vectors
     6.580000000  6.580000000  6.580000000     0.151975684  0.151975684  0.151975684


 
 k-points in units of 2pi/SCALE and weight: K-Spacing Value to Generate K-Mesh: 0.03
   0.00000000  0.00000000  0.00000000       0.008
   0.03039514  0.00000000  0.00000000       0.016
   0.00000000  0.03039514  0.00000000       0.016
   0.00000000  0.00000000  0.03039514       0.016
   0.06079027  0.00000000  0.00000000       0.016
   0.00000000  0.06079027  0.00000000       0.016
   0.00000000  0.00000000  0.06079027       0.016
   0.03039514  0.03039514  0.00000000       0.032
   0.00000000  0.03039514  0.03039514       0.032
   0.03039514  0.00000000  0.03039514       0.016
  -0.03039514  0.00000000  0.03039514       0.016
   0.06079027  0.03039514  0.00000000       0.032
   0.00000000  0.06079027  0.03039514       0.032
   0.03039514  0.00000000  0.06079027       0.016
  -0.03039514  0.06079027  0.00000000       0.032
  -0.06079027  0.00000000  0.03039514       0.016
   0.00000000  0.03039514  0.06079027       0.032
  -0.03039514  0.00000000  0.06079027       0.016
   0.06079027  0.00000000  0.03039514       0.016
   0.06079027  0.06079027  0.00000000       0.032
   0.00000000  0.06079027  0.06079027       0.032
   0.06079027  0.00000000  0.06079027       0.016
  -0.06079027  0.00000000  0.06079027       0.016
   0.03039514  0.03039514  0.03039514       0.032
  -0.03039514  0.03039514  0.03039514       0.032
   0.06079027  0.03039514  0.03039514       0.032
   0.03039514  0.06079027  0.03039514       0.032
   0.03039514  0.03039514  0.06079027       0.032
  -0.03039514  0.06079027  0.03039514       0.032
  -0.06079027  0.03039514  0.03039514       0.032
  -0.03039514  0.03039514  0.06079027       0.032
   0.06079027  0.06079027  0.03039514       0.032
   0.03039514  0.06079027  0.06079027       0.032
   0.06079027  0.03039514  0.06079027       0.032
  -0.06079027  0.06079027  0.03039514       0.032
  -0.06079027  0.03039514  0.06079027       0.032
  -0.03039514  0.06079027  0.06079027       0.032
   0.06079027  0.06079027  0.06079027       0.032
  -0.06079027  0.06079027  0.06079027       0.032
 
 k-points in reciprocal lattice and weights: K-Spacing Value to Generate K-Mesh: 0.03
   0.00000000  0.00000000  0.00000000       0.008
   0.20000000  0.00000000  0.00000000       0.016
   0.00000000  0.20000000  0.00000000       0.016
   0.00000000  0.00000000  0.20000000       0.016
   0.40000000  0.00000000  0.00000000       0.016
   0.00000000  0.40000000  0.00000000       0.016
   0.00000000  0.00000000  0.40000000       0.016
   0.20000000  0.20000000  0.00000000       0.032
   0.00000000  0.20000000  0.20000000       0.032
   0.20000000  0.00000000  0.20000000       0.016
  -0.20000000  0.00000000  0.20000000       0.016
   0.40000000  0.20000000  0.00000000       0.032
   0.00000000  0.40000000  0.20000000       0.032
   0.20000000  0.00000000  0.40000000       0.016
  -0.20000000  0.40000000  0.00000000       0.032
  -0.40000000  0.00000000  0.20000000       0.016
   0.00000000  0.20000000  0.40000000       0.032
  -0.20000000  0.00000000  0.40000000       0.016
   0.40000000  0.00000000  0.20000000       0.016
   0.40000000  0.40000000  0.00000000       0.032
   0.00000000  0.40000000  0.40000000       0.032
   0.40000000  0.00000000  0.40000000       0.016
  -0.40000000  0.00000000  0.40000000       0.016
   0.20000000  0.20000000  0.20000000       0.032
  -0.20000000  0.20000000  0.20000000       0.032
   0.40000000  0.20000000  0.20000000       0.032
   0.20000000  0.40000000  0.20000000       0.032
   0.20000000  0.20000000  0.40000000       0.032
  -0.20000000  0.40000000  0.20000000       0.032
  -0.40000000  0.20000000  0.20000000       0.032
  -0.20000000  0.20000000  0.40000000       0.032
   0.40000000  0.40000000  0.20000000       0.032
   0.20000000  0.40000000  0.40000000       0.032
   0.40000000  0.20000000  0.40000000       0.032
  -0.40000000  0.40000000  0.20000000       0.032
  -0.40000000  0.20000000  0.40000000       0.032
  -0.20000000  0.40000000  0.40000000       0.032
   0.40000000  0.40000000  0.40000000       0.032
  -0.40000000  0.40000000  0.40000000       0.032
 
 position of ions in fractional coordinates (direct lattice) 
   0.50000000  0.50000000  0.00000000
   0.00000000  0.00000000  0.50000000
   0.25000000  0.25000000  0.25000000
   0.00000000  0.50000000  0.00000000
   0.75000000  0.25000000  0.75000000
   0.75000000  0.75000000  0.75000000
   0.50000000  0.00000000  0.50000000
   0.25000000  0.75000000  0.25000000
   0.25000000  0.75000000  0.75000000
   0.25000000  0.25000000  0.75000000
   0.00000000  0.00000000  0.00000000
   0.75000000  0.25000000  0.25000000
   0.50000000  0.50000000  0.50000000
   0.00000000  0.50000000  0.50000000
   0.75000000  0.75000000  0.25000000
   0.50000000  0.00000000  0.00000000
 
 position of ions in cartesian coordinates  (Angst):
   3.29000000  3.29000000  0.00000000
   0.00000000  0.00000000  3.29000000
   1.64500000  1.64500000  1.64500000
   0.00000000  3.29000000  0.00000000
   4.93500000  1.64500000  4.93500000
   4.93500000  4.93500000  4.93500000
   3.29000000  0.00000000  3.29000000
   1.64500000  4.93500000  1.64500000
   1.64500000  4.93500000  4.93500000
   1.64500000  1.64500000  4.93500000
   0.00000000  0.00000000  0.00000000
   4.93500000  1.64500000  1.64500000
   3.29000000  3.29000000  3.29000000
   0.00000000  3.29000000  3.29000000
   4.93500000  4.93500000  1.64500000
   3.29000000  0.00000000  0.00000000
 


--------------------------------------------------------------------------------------------------------


 k-point   1 :   0.0000 0.0000 0.0000  plane waves:    2517
 k-point   2 :   0.2000 0.0000 0.0000  plane waves:    2545
 k-point   3 :   0.0000 0.2000 0.0000  plane waves:    2545
 k-point   4 :   0.0000 0.0000 0.2000  plane waves:    2545
 k-point   5 :   0.4000 0.0000 0.0000  plane waves:    2569
 k-point   6 :   0.0000 0.4000 0.0000  plane waves:    2569
 k-point   7 :   0.0000 0.0000 0.4000  plane waves:    2569
 k-point   8 :   0.2000 0.2000 0.0000  plane waves:    2562
 k-point   9 :   0.0000 0.2000 0.2000  plane waves:    2562
 k-point  10 :   0.2000 0.0000 0.2000  plane waves:    2562
 k-point  11 :  -0.2000 0.0000 0.2000  plane waves:    2562
 k-point  12 :   0.4000 0.2000 0.0000  plane waves:    2566
 k-point  13 :   0.0000 0.4000 0.2000  plane waves:    2566
 k-point  14 :   0.2000 0.0000 0.4000  plane waves:    2566
 k-point  15 :  -0.2000 0.4000 0.0000  plane waves:    2566
 k-point  16 :  -0.4000 0.0000 0.2000  plane waves:    2566
 k-point  17 :   0.0000 0.2000 0.4000  plane waves:    2566
 k-point  18 :  -0.2000 0.0000 0.4000  plane waves:    2566
 k-point  19 :   0.4000 0.0000 0.2000  plane waves:    2566
 k-point  20 :   0.4000 0.4000 0.0000  plane waves:    2570
 k-point  21 :   0.0000 0.4000 0.4000  plane waves:    2570
 k-point  22 :   0.4000 0.0000 0.4000  plane waves:    2570
 k-point  23 :  -0.4000 0.0000 0.4000  plane waves:    2570
 k-point  24 :   0.2000 0.2000 0.2000  plane waves:    2572
 k-point  25 :  -0.2000 0.2000 0.2000  plane waves:    2572
 k-point  26 :   0.4000 0.2000 0.2000  plane waves:    2546
 k-point  27 :   0.2000 0.4000 0.2000  plane waves:    2546
 k-point  28 :   0.2000 0.2000 0.4000  plane waves:    2546
 k-point  29 :  -0.2000 0.4000 0.2000  plane waves:    2546
 k-point  30 :  -0.4000 0.2000 0.2000  plane waves:    2546
 k-point  31 :  -0.2000 0.2000 0.4000  plane waves:    2546
 k-point  32 :   0.4000 0.4000 0.2000  plane waves:    2549
 k-point  33 :   0.2000 0.4000 0.4000  plane waves:    2549
 k-point  34 :   0.4000 0.2000 0.4000  plane waves:    2549
 k-point  35 :  -0.4000 0.4000 0.2000  plane waves:    2549
 k-point  36 :  -0.4000 0.2000 0.4000  plane waves:    2549
 k-point  37 :  -0.2000 0.4000 0.4000  plane waves:    2549
 k-point  38 :   0.4000 0.4000 0.4000  plane waves:    2533
 k-point  39 :  -0.4000 0.4000 0.4000  plane waves:    2533

 maximum and minimum number of plane-waves per node :       226      197

 maximum number of plane-waves:      2572
 maximum index in each direction: 
   IXMAX=    8   IYMAX=    8   IZMAX=    8
   IXMIN=   -8   IYMIN=   -8   IZMIN=   -8


 parallel 3D FFT for wavefunctions:
    minimum data exchange during FFTs selected (reduces bandwidth)
 parallel 3D FFT for charge:
    minimum data exchange during FFTs selected (reduces bandwidth)


 total amount of memory used by VASP MPI-rank0    41501. kBytes
=======================================================================

   base      :      30000. kBytes
   nonl-proj :       4907. kBytes
   fftplans  :        455. kBytes
   grid      :        919. kBytes
   one-center:         31. kBytes
   wavefun   :       5189. kBytes
 
     INWAV:  cpu time      0.0000: real time      0.0002
 Broyden mixing: mesh for mixing (old mesh)
   NGX = 17   NGY = 17   NGZ = 17
  (NGX  = 72   NGY  = 72   NGZ  = 72)
  gives a total of   4913 points

 initial charge density was supplied:
 charge density of overlapping atoms calculated
 number of electron     216.0000000 magnetization 
 keeping initial charge density in first step


--------------------------------------------------------------------------------------------------------


 Maximum index for augmentation-charges          517 (set IRDMAX)


--------------------------------------------------------------------------------------------------------


 First call to EWALD:  gamma=   0.269
 Maximum number of real-space cells 3x 3x 3
 Maximum number of reciprocal cells 3x 3x 3

    FEWALD:  cpu time      0.0012: real time      0.0012


--------------------------------------- Iteration      1(   1)  ---------------------------------------


    POTLOK:  cpu time      0.0123: real time      0.0899
    SETDIJ:  cpu time      0.0028: real time      0.0029
     EDDAV:  cpu time      2.0358: real time      2.0441
       DOS:  cpu time      0.0032: real time      0.0032
    --------------------------------------------
      LOOP:  cpu time      2.0541: real time      2.1400

 eigenvalue-minimisations  : 10544
 total energy-change (2. order) : 0.2086509E+04  (-0.8517081E+04)
 number of electron     216.0000000 magnetization 
 augmentation part      216.0000000 magnetization 

 Free energy of the ion-electron system (eV)
  ---------------------------------------------------
  alpha Z        PSCENC =      1867.01207979
  Ewald energy   TEWEN  =    -23262.64363909
  -Hartree energ DENC   =     -4511.70892747
  -exchange      EXHF   =         0.00000000
  -V(xc)+E(xc)   XCENC  =       901.67609084
  PAW double counting   =     21877.19397352   -21560.09094188
  entropy T*S    EENTRO =        -0.00133262
  eigenvalues    EBANDS =      -795.37695662
  atomic energy  EATOM  =     27570.44884234
  Solvation  Ediel_sol  =         0.00000000
  ---------------------------------------------------
  free energy    TOTEN  =      2086.50918881 eV

  energy without entropy =     2086.51052144  energy(sigma->0) =     2086.50985513


--------------------------------------------------------------------------------------------------------




--------------------------------------- Iteration      1(   2)  ---------------------------------------


     EDDAV:  cpu time      2.0544: real time      2.0631
       DOS:  cpu time      0.0031: real time      0.0031
    --------------------------------------------
      LOOP:  cpu time      2.0575: real time      2.0662

 eigenvalue-minimisations  : 10716
 total energy-change (2. order) :-0.2118831E+04  (-0.2049901E+04)
 number of electron     216.0000000 magnetization 
 augmentation part      216.0000000 magnetization 

 Free energy of the ion-electron system (eV)
  ---------------------------------------------------
  alpha Z        PSCENC =      1867.01207979
  Ewald energy   TEWEN  =    -23262.64363909
  -Hartree energ DENC   =     -4511.70892747
  -exchange      EXHF   =         0.00000000
  -V(xc)+E(xc)   XCENC  =       901.67609084
  PAW double counting   =     21877.19397352   -21560.09094188
  entropy T*S    EENTRO =        -0.00296748
  eigenvalues    EBANDS =     -2914.20642233
  atomic energy  EATOM  =     27570.44884234
  Solvation  Ediel_sol  =         0.00000000
  ---------------------------------------------------
  free energy    TOTEN  =       -32.32191175 eV

  energy without entropy =      -32.31894427  energy(sigma->0) =      -32.32042801


--------------------------------------------------------------------------------------------------------




--------------------------------------- Iteration      1(   3)  ---------------------------------------


     EDDAV:  cpu time      2.5957: real time      2.6059
       DOS:  cpu time      0.0032: real time      0.0032
    --------------------------------------------
      LOOP:  cpu time      2.5989: real time      2.6091

 eigenvalue-minimisations  : 14720
 total energy-change (2. order) :-0.1569741E+03  (-0.1485955E+03)
 number of electron     216.0000000 magnetization 
 augmentation part      216.0000000 magnetization 

 Free energy of the ion-electron system (eV)
  ---------------------------------------------------
  alpha Z        PSCENC =      1867.01207979
  Ewald energy   TEWEN  =    -23262.64363909
  -Hartree energ DENC   =     -4511.70892747
  -exchange      EXHF   =         0.00000000
  -V(xc)+E(xc)   XCENC  =       901.67609084
  PAW double counting   =     21877.19397352   -21560.09094188
  entropy T*S    EENTRO =        -0.00189999
  eigenvalues    EBANDS =     -3071.18155353
  atomic energy  EATOM  =     27570.44884234
  Solvation  Ediel_sol  =         0.00000000
  ---------------------------------------------------
  free energy    TOTEN  =      -189.29597546 eV

  energy without entropy =     -189.29407547  energy(sigma->0) =     -189.29502546


--------------------------------------------------------------------------------------------------------




--------------------------------------- Iteration      1(   4)  ---------------------------------------


     EDDAV:  cpu time      2.5774: real time      2.5879
       DOS:  cpu time      0.0032: real time      0.0032
    --------------------------------------------
      LOOP:  cpu time      2.5806: real time      2.5911

 eigenvalue-minimisations  : 14648
 total energy-change (2. order) :-0.8407205E+01  (-0.8189360E+01)
 number of electron     216.0000000 magnetization 
 augmentation part      216.0000000 magnetization 

 Free energy of the ion-electron system (eV)
  ---------------------------------------------------
  alpha Z        PSCENC =      1867.01207979
  Ewald energy   TEWEN  =    -23262.64363909
  -Hartree energ DENC   =     -4511.70892747
  -exchange      EXHF   =         0.00000000
  -V(xc)+E(xc)   XCENC  =       901.67609084
  PAW double counting   =     21877.19397352   -21560.09094188
  entropy T*S    EENTRO =        -0.00237205
  eigenvalues    EBANDS =     -3079.58828609
  atomic energy  EATOM  =     27570.44884234
  Solvation  Ediel_sol  =         0.00000000
  ---------------------------------------------------
  free energy    TOTEN  =      -197.70318008 eV

  energy without entropy =     -197.70080802  energy(sigma->0) =     -197.70199405


--------------------------------------------------------------------------------------------------------




--------------------------------------- Iteration      1(   5)  ---------------------------------------


     EDDAV:  cpu time      2.7957: real time      2.8070
       DOS:  cpu time      0.0032: real time      0.0032
    CHARGE:  cpu time      0.0579: real time      0.0581
    MIXING:  cpu time      0.0002: real time      0.0002
    --------------------------------------------
      LOOP:  cpu time      2.8570: real time      2.8685

 eigenvalue-minimisations  : 16272
 total energy-change (2. order) :-0.5260083E+00  (-0.5221400E+00)
 number of electron     215.9999811 magnetization 
 augmentation part       46.8421015 magnetization 

 Broyden mixing:
  rms(total) = 0.54448E+01    rms(broyden)= 0.54434E+01
  rms(prec ) = 0.60448E+01
  weight for this iteration     100.00

 Free energy of the ion-electron system (eV)
  ---------------------------------------------------
  alpha Z        PSCENC =      1867.01207979
  Ewald energy   TEWEN  =    -23262.64363909
  -Hartree energ DENC   =     -4511.70892747
  -exchange      EXHF   =         0.00000000
  -V(xc)+E(xc)   XCENC  =       901.67609084
  PAW double counting   =     21877.19397352   -21560.09094188
  entropy T*S    EENTRO =        -0.00257381
  eigenvalues    EBANDS =     -3080.11409259
  atomic energy  EATOM  =     27570.44884234
  Solvation  Ediel_sol  =         0.00000000
  ---------------------------------------------------
  free energy    TOTEN  =      -198.22918834 eV

  energy without entropy =     -198.22661453  energy(sigma->0) =     -198.22790144


--------------------------------------------------------------------------------------------------------




--------------------------------------- Iteration      1(   6)  ---------------------------------------


    POTLOK:  cpu time      0.0045: real time      0.0047
    SETDIJ:  cpu time      0.0018: real time      0.0018
     EDDAV:  cpu time      2.2570: real time      2.2660
       DOS:  cpu time      0.0031: real time      0.0031
    CHARGE:  cpu time      0.0577: real time      0.0579
    MIXING:  cpu time      0.0003: real time      0.0003
    --------------------------------------------
      LOOP:  cpu time      2.3245: real time      2.3338

 eigenvalue-minimisations  : 12272
 total energy-change (2. order) : 0.8915993E+01  (-0.2540667E+01)
 number of electron     215.9999798 magnetization 
 augmentation part       48.8464714 magnetization 

 Broyden mixing:
  rms(total) = 0.18210E+01    rms(broyden)= 0.18206E+01
  rms(prec ) = 0.22632E+01
  weight for this iteration     100.00

 eigenvalues of (default mixing * dielectric matrix)
  average eigenvalue GAMMA=   1.3780
  1.3780

 Free energy of the ion-electron system (eV)
  ---------------------------------------------------
  alpha Z        PSCENC =      1867.01207979
  Ewald energy   TEWEN  =    -23262.64363909
  -Hartree energ DENC   =     -4252.51639650
  -exchange      EXHF   =         0.00000000
  -V(xc)+E(xc)   XCENC  =       889.01991527
  PAW double counting   =     25107.20734116   -24826.49115459
  entropy T*S    EENTRO =        -0.00166914
  eigenvalues    EBANDS =     -3281.34851504
  atomic energy  EATOM  =     27570.44884234
  Solvation  Ediel_sol  =         0.00000000
  ---------------------------------------------------
  free energy    TOTEN  =      -189.31319580 eV

  energy without entropy =     -189.31152666  energy(sigma->0) =     -189.31236123


--------------------------------------------------------------------------------------------------------




--------------------------------------- Iteration      1(   7)  ---------------------------------------


    POTLOK:  cpu time      0.0046: real time      0.0047
    SETDIJ:  cpu time      0.0018: real time      0.0018
     EDDAV:  cpu time      2.6053: real time      2.6153
       DOS:  cpu time      0.0030: real time      0.0031
    CHARGE:  cpu time      0.0606: real time      0.0608
    MIXING:  cpu time      0.0003: real time      0.0003
    --------------------------------------------
      LOOP:  cpu time      2.6756: real time      2.6860

 eigenvalue-minimisations  : 14744
 total energy-change (2. order) : 0.8048056E+00  (-0.1318950E+01)
 number of electron     215.9999806 magnetization 
 augmentation part       48.8946725 magnetization 

 Broyden mixing:
  rms(total) = 0.85066E+00    rms(broyden)= 0.85046E+00
  rms(prec ) = 0.17322E+01
  weight for this iteration     100.00

 eigenvalues of (default mixing * dielectric matrix)
  average eigenvalue GAMMA=   1.0725
  1.5138  0.6311

 Free energy of the ion-electron system (eV)
  ---------------------------------------------------
  alpha Z        PSCENC =      1867.01207979
  Ewald energy   TEWEN  =    -23262.64363909
  -Hartree energ DENC   =     -4168.42312557
  -exchange      EXHF   =         0.00000000
  -V(xc)+E(xc)   XCENC  =       884.45798171
  PAW double counting   =     26952.45794064   -26686.91200912
  entropy T*S    EENTRO =        -0.00110055
  eigenvalues    EBANDS =     -3344.90536035
  atomic energy  EATOM  =     27570.44884234
  Solvation  Ediel_sol  =         0.00000000
  ---------------------------------------------------
  free energy    TOTEN  =      -188.50839019 eV

  energy without entropy =     -188.50728964  energy(sigma->0) =     -188.50783991


--------------------------------------------------------------------------------------------------------




--------------------------------------- Iteration      1(   8)  ---------------------------------------


    POTLOK:  cpu time      0.0091: real time      0.0112
    SETDIJ:  cpu time      0.0022: real time      0.0022
     EDDAV:  cpu time      2.3776: real time      2.3868
       DOS:  cpu time      0.0032: real time      0.0032
    CHARGE:  cpu time      0.0580: real time      0.0582
    MIXING:  cpu time      0.0003: real time      0.0003
    --------------------------------------------
      LOOP:  cpu time      2.4503: real time      2.4619

 eigenvalue-minimisations  : 13192
 total energy-change (2. order) : 0.1244648E+01  (-0.5826188E+00)
 number of electron     215.9999798 magnetization 
 augmentation part       49.4138369 magnetization 

 Broyden mixing:
  rms(total) = 0.36970E+00    rms(broyden)= 0.36941E+00
  rms(prec ) = 0.51344E+00
  weight for this iteration     100.00

 eigenvalues of (default mixing * dielectric matrix)
  average eigenvalue GAMMA=   1.1381
  1.6371  1.3199  0.4575

 Free energy of the ion-electron system (eV)
  ---------------------------------------------------
  alpha Z        PSCENC =      1867.01207979
  Ewald energy   TEWEN  =    -23262.64363909
  -Hartree energ DENC   =     -4128.65204176
  -exchange      EXHF   =         0.00000000
  -V(xc)+E(xc)   XCENC  =       882.69826034
  PAW double counting   =     27471.53062909   -27212.01517598
  entropy T*S    EENTRO =        -0.00231277
  eigenvalues    EBANDS =     -3375.64038457
  atomic energy  EATOM  =     27570.44884234
  Solvation  Ediel_sol  =         0.00000000
  ---------------------------------------------------
  free energy    TOTEN  =      -187.26374261 eV

  energy without entropy =     -187.26142984  energy(sigma->0) =     -187.26258622


--------------------------------------------------------------------------------------------------------




--------------------------------------- Iteration      1(   9)  ---------------------------------------


    POTLOK:  cpu time      0.0046: real time      0.0047
    SETDIJ:  cpu time      0.0017: real time      0.0017
     EDDAV:  cpu time      2.4523: real time      2.4617
       DOS:  cpu time      0.0032: real time      0.0032
    CHARGE:  cpu time      0.0580: real time      0.0582
    MIXING:  cpu time      0.0003: real time      0.0003
    --------------------------------------------
      LOOP:  cpu time      2.5201: real time      2.5299

 eigenvalue-minimisations  : 13800
 total energy-change (2. order) : 0.2054473E-02  (-0.8652639E-01)
 number of electron     215.9999800 magnetization 
 augmentation part       49.4124154 magnetization 

 Broyden mixing:
  rms(total) = 0.26617E+00    rms(broyden)= 0.26614E+00
  rms(prec ) = 0.38375E+00
  weight for this iteration     100.00

 eigenvalues of (default mixing * dielectric matrix)
  average eigenvalue GAMMA=   1.1905
  2.0984  1.6207  0.6234  0.4195

 Free energy of the ion-electron system (eV)
  ---------------------------------------------------
  alpha Z        PSCENC =      1867.01207979
  Ewald energy   TEWEN  =    -23262.64363909
  -Hartree energ DENC   =     -4125.41454853
  -exchange      EXHF   =         0.00000000
  -V(xc)+E(xc)   XCENC  =       882.55242032
  PAW double counting   =     27669.87526841   -27411.10891267
  entropy T*S    EENTRO =        -0.00143596
  eigenvalues    EBANDS =     -3377.98176275
  atomic energy  EATOM  =     27570.44884234
  Solvation  Ediel_sol  =         0.00000000
  ---------------------------------------------------
  free energy    TOTEN  =      -187.26168814 eV

  energy without entropy =     -187.26025217  energy(sigma->0) =     -187.26097015


--------------------------------------------------------------------------------------------------------




--------------------------------------- Iteration      1(  10)  ---------------------------------------


    POTLOK:  cpu time      0.0045: real time      0.0047
    SETDIJ:  cpu time      0.0017: real time      0.0017
     EDDAV:  cpu time      2.4450: real time      2.4543
       DOS:  cpu time      0.0031: real time      0.0031
    CHARGE:  cpu time      0.0581: real time      0.0583
    MIXING:  cpu time      0.0003: real time      0.0004
    --------------------------------------------
      LOOP:  cpu time      2.5128: real time      2.5224

 eigenvalue-minimisations  : 13664
 total energy-change (2. order) : 0.3561072E-01  (-0.2694608E-01)
 number of electron     215.9999800 magnetization 
 augmentation part       49.3851275 magnetization 

 Broyden mixing:
  rms(total) = 0.10245E+00    rms(broyden)= 0.10241E+00
  rms(prec ) = 0.17762E+00
  weight for this iteration     100.00

 eigenvalues of (default mixing * dielectric matrix)
  average eigenvalue GAMMA=   1.1784
  2.4653  1.6648  0.8958  0.4441  0.4220

 Free energy of the ion-electron system (eV)
  ---------------------------------------------------
  alpha Z        PSCENC =      1867.01207979
  Ewald energy   TEWEN  =    -23262.64363909
  -Hartree energ DENC   =     -4125.08786521
  -exchange      EXHF   =         0.00000000
  -V(xc)+E(xc)   XCENC  =       882.50919959
  PAW double counting   =     27820.18000809   -27561.72774008
  entropy T*S    EENTRO =        -0.00236616
  eigenvalues    EBANDS =     -3377.91459670
  atomic energy  EATOM  =     27570.44884234
  Solvation  Ediel_sol  =         0.00000000
  ---------------------------------------------------
  free energy    TOTEN  =      -187.22607742 eV

  energy without entropy =     -187.22371126  energy(sigma->0) =     -187.22489434


--------------------------------------------------------------------------------------------------------




--------------------------------------- Iteration      1(  11)  ---------------------------------------


    POTLOK:  cpu time      0.0045: real time      0.0046
    SETDIJ:  cpu time      0.0017: real time      0.0017
     EDDAV:  cpu time      2.4640: real time      2.4738
       DOS:  cpu time      0.0032: real time      0.0033
    CHARGE:  cpu time      0.0598: real time      0.0600
    MIXING:  cpu time      0.0003: real time      0.0003
    --------------------------------------------
      LOOP:  cpu time      2.5336: real time      2.5438

 eigenvalue-minimisations  : 13896
 total energy-change (2. order) : 0.2379461E-02  (-0.7870029E-02)
 number of electron     215.9999800 magnetization 
 augmentation part       49.3612245 magnetization 

 Broyden mixing:
  rms(total) = 0.50665E-01    rms(broyden)= 0.50616E-01
  rms(prec ) = 0.11618E+00
  weight for this iteration     100.00

 eigenvalues of (default mixing * dielectric matrix)
  average eigenvalue GAMMA=   1.0636
  2.4803  1.6644  0.9513  0.4636  0.4636  0.3587

 Free energy of the ion-electron system (eV)
  ---------------------------------------------------
  alpha Z        PSCENC =      1867.01207979
  Ewald energy   TEWEN  =    -23262.64363909
  -Hartree energ DENC   =     -4125.39756262
  -exchange      EXHF   =         0.00000000
  -V(xc)+E(xc)   XCENC  =       882.52713246
  PAW double counting   =     27847.30788344   -27588.74016383
  entropy T*S    EENTRO =        -0.00213900
  eigenvalues    EBANDS =     -3377.73613145
  atomic energy  EATOM  =     27570.44884234
  Solvation  Ediel_sol  =         0.00000000
  ---------------------------------------------------
  free energy    TOTEN  =      -187.22369795 eV

  energy without entropy =     -187.22155896  energy(sigma->0) =     -187.22262846


--------------------------------------------------------------------------------------------------------




--------------------------------------- Iteration      1(  12)  ---------------------------------------


    POTLOK:  cpu time      0.0045: real time      0.0047
    SETDIJ:  cpu time      0.0017: real time      0.0017
     EDDAV:  cpu time      2.5003: real time      2.5106
       DOS:  cpu time      0.0032: real time      0.0032
    CHARGE:  cpu time      0.0579: real time      0.0581
    MIXING:  cpu time      0.0003: real time      0.0003
    --------------------------------------------
      LOOP:  cpu time      2.5679: real time      2.5787

 eigenvalue-minimisations  : 13888
 total energy-change (2. order) : 0.5347403E-02  (-0.1815378E-02)
 number of electron     215.9999800 magnetization 
 augmentation part       49.3675490 magnetization 

 Broyden mixing:
  rms(total) = 0.17059E-01    rms(broyden)= 0.17037E-01
  rms(prec ) = 0.27206E-01
  weight for this iteration     100.00

 eigenvalues of (default mixing * dielectric matrix)
  average eigenvalue GAMMA=   1.0404
  2.4401  1.6965  0.9184  0.9184  0.5139  0.4335  0.3621

 Free energy of the ion-electron system (eV)
  ---------------------------------------------------
  alpha Z        PSCENC =      1867.01207979
  Ewald energy   TEWEN  =    -23262.64363909
  -Hartree energ DENC   =     -4125.10993626
  -exchange      EXHF   =         0.00000000
  -V(xc)+E(xc)   XCENC  =       882.52084300
  PAW double counting   =     27848.91345960   -27590.24480781
  entropy T*S    EENTRO =        -0.00207645
  eigenvalues    EBANDS =     -3378.11311568
  atomic energy  EATOM  =     27570.44884234
  Solvation  Ediel_sol  =         0.00000000
  ---------------------------------------------------
  free energy    TOTEN  =      -187.21835055 eV

  energy without entropy =     -187.21627410  energy(sigma->0) =     -187.21731233


--------------------------------------------------------------------------------------------------------




--------------------------------------- Iteration      1(  13)  ---------------------------------------


    POTLOK:  cpu time      0.0046: real time      0.0047
    SETDIJ:  cpu time      0.0017: real time      0.0017
     EDDAV:  cpu time      2.5392: real time      2.5493
       DOS:  cpu time      0.0031: real time      0.0031
    CHARGE:  cpu time      0.0578: real time      0.0580
    MIXING:  cpu time      0.0004: real time      0.0004
    --------------------------------------------
      LOOP:  cpu time      2.6069: real time      2.6173

 eigenvalue-minimisations  : 14356
 total energy-change (2. order) : 0.1732741E-03  (-0.2840411E-03)
 number of electron     215.9999800 magnetization 
 augmentation part       49.3765659 magnetization 

 Broyden mixing:
  rms(total) = 0.10690E-01    rms(broyden)= 0.10688E-01
  rms(prec ) = 0.15403E-01
  weight for this iteration     100.00

 eigenvalues of (default mixing * dielectric matrix)
  average eigenvalue GAMMA=   1.1040
  2.5157  1.9989  1.5036  1.0092  0.5066  0.5066  0.4276  0.3640

 Free energy of the ion-electron system (eV)
  ---------------------------------------------------
  alpha Z        PSCENC =      1867.01207979
  Ewald energy   TEWEN  =    -23262.64363909
  -Hartree energ DENC   =     -4124.78040251
  -exchange      EXHF   =         0.00000000
  -V(xc)+E(xc)   XCENC  =       882.50638257
  PAW double counting   =     27845.63219266   -27586.86789048
  entropy T*S    EENTRO =        -0.00204155
  eigenvalues    EBANDS =     -3378.52370100
  atomic energy  EATOM  =     27570.44884234
  Solvation  Ediel_sol  =         0.00000000
  ---------------------------------------------------
  free energy    TOTEN  =      -187.21817728 eV

  energy without entropy =     -187.21613573  energy(sigma->0) =     -187.21715650


--------------------------------------------------------------------------------------------------------




--------------------------------------- Iteration      1(  14)  ---------------------------------------


    POTLOK:  cpu time      0.0046: real time      0.0047
    SETDIJ:  cpu time      0.0017: real time      0.0017
     EDDAV:  cpu time      2.4613: real time      2.4708
       DOS:  cpu time      0.0032: real time      0.0032
    CHARGE:  cpu time      0.0579: real time      0.0581
    MIXING:  cpu time      0.0004: real time      0.0004
    --------------------------------------------
      LOOP:  cpu time      2.5291: real time      2.5389

 eigenvalue-minimisations  : 13760
 total energy-change (2. order) : 0.4822211E-04  (-0.6535500E-04)
 number of electron     215.9999800 magnetization 
 augmentation part       49.3798284 magnetization 

 Broyden mixing:
  rms(total) = 0.56612E-02    rms(broyden)= 0.56586E-02
  rms(prec ) = 0.88389E-02
  weight for this iteration     100.00

 eigenvalues of (default mixing * dielectric matrix)
  average eigenvalue GAMMA=   1.0678
  2.6147  2.0198  1.4818  1.0384  0.6915  0.4993  0.4861  0.4186  0.3601

 Free energy of the ion-electron system (eV)
  ---------------------------------------------------
  alpha Z        PSCENC =      1867.01207979
  Ewald energy   TEWEN  =    -23262.64363909
  -Hartree energ DENC   =     -4124.62787379
  -exchange      EXHF   =         0.00000000
  -V(xc)+E(xc)   XCENC  =       882.50005432
  PAW double counting   =     27841.99327757   -27583.07499284
  entropy T*S    EENTRO =        -0.00204822
  eigenvalues    EBANDS =     -3378.82382914
  atomic energy  EATOM  =     27570.44884234
  Solvation  Ediel_sol  =         0.00000000
  ---------------------------------------------------
  free energy    TOTEN  =      -187.21812906 eV

  energy without entropy =     -187.21608084  energy(sigma->0) =     -187.21710495


--------------------------------------------------------------------------------------------------------




--------------------------------------- Iteration      1(  15)  ---------------------------------------


    POTLOK:  cpu time      0.0045: real time      0.0047
    SETDIJ:  cpu time      0.0017: real time      0.0018
     EDDAV:  cpu time      2.4392: real time      2.4491
       DOS:  cpu time      0.0031: real time      0.0031
    CHARGE:  cpu time      0.0580: real time      0.0582
    MIXING:  cpu time      0.0004: real time      0.0004
    --------------------------------------------
      LOOP:  cpu time      2.5069: real time      2.5172

 eigenvalue-minimisations  : 13632
[...]
     41     -25.2224      2.00000
     42     -25.2177      2.00000
     43     -25.2075      2.00000
     44     -25.2049      2.00000
     45     -25.1967      2.00000
     46     -25.1937      2.00000
     47     -25.1512      2.00000
     48     -25.0796      2.00000
     49     -24.9959      2.00000
     50     -24.9477      2.00000
     51     -24.3795      2.00000
     52     -24.3573      2.00000
     53     -24.3274      2.00000
     54     -24.3002      2.00000
     55     -24.2851      2.00000
     56     -24.2773      2.00000
     57     -21.0363      2.00000
     58     -21.0294      2.00000
     59     -21.0257      2.00000
     60     -21.0174      2.00000
     61     -20.9977      2.00000
     62     -20.9861      2.00000
     63       4.0083      2.00000
     64       4.3900      2.00000
     65       4.7423      2.00000
     66       4.9952      2.00000
     67       5.2837      2.00000
     68       5.5681      2.00000
     69       5.7385      2.00000
     70       6.2266      2.00000
     71       6.5707      2.00000
     72       6.6217      2.00000
     73       6.6715      2.00000
     74       6.6932      2.00000
     75       6.7562      2.00000
     76       6.7734      2.00000
     77       6.8451      2.00000
     78       6.8623      2.00000
     79       6.9280      2.00000
     80       7.0063      2.00000
     81       7.0345      2.00000
     82       7.0820      2.00000
     83       7.3587      2.00000
     84       7.3726      2.00000
     85       7.4238      2.00000
     86       7.4980      2.00000
     87       7.5264      2.00000
     88       7.5475      2.00000
     89       7.5887      2.00000
     90       7.5992      2.00000
     91       7.6315      2.00000
     92       7.6683      2.00000
     93       7.6968      2.00000
     94       7.7219      2.00000
     95       7.7394      2.00000
     96       7.7794      2.00000
     97       7.8001      2.00000
     98       7.8132      2.00000
     99       7.8235      2.00000
    100       7.9069      2.00000
    101       7.9281      2.00000
    102       7.9523      2.00000
    103       7.9801      2.00000
    104       7.9907      2.00000
    105       8.1014      2.00000
    106       8.1072      2.00000
    107       8.1247      2.00000
    108       8.2485      2.00000
    109       8.2793      2.00000
    110       8.6422      2.00000
    111      11.1521      0.00000
    112      11.2460      0.00000
    113      11.3006      0.00000
    114      11.4522      0.00000
    115      11.4846      0.00000
    116      11.5006      0.00000
    117      11.5614      0.00000
    118      11.6093      0.00000
    119      11.6281      0.00000
    120      11.6668      0.00000
    121      11.6959      0.00000
    122      11.8158      0.00000
    123      11.8493      0.00000
    124      11.8972      0.00000
    125      11.9947      0.00000
    126      12.1000      0.00000
    127      12.1129      0.00000
    128      12.1555      0.00000
    129      12.2008      0.00000
    130      12.3318      0.00000
    131      12.3682      0.00000
    132      12.4904      0.00000

 k-point    39 :      -0.4000    0.4000    0.4000
  band No.  band energies     occupation 
      1     -64.2370      2.00000
      2     -64.2309      2.00000
      3     -64.2074      2.00000
      4     -64.2074      2.00000
      5     -64.1982      2.00000
      6     -64.1935      2.00000
      7     -51.1921      2.00000
      8     -51.1801      2.00000
      9     -51.1515      2.00000
     10     -51.1478      2.00000
     11     -51.1230      2.00000
     12     -51.1142      2.00000
     13     -44.9407      2.00000
     14     -44.9407      2.00000
     15     -28.6581      2.00000
     16     -28.6163      2.00000
     17     -28.5747      2.00000
     18     -28.5632      2.00000
     19     -28.4590      2.00000
     20     -28.4523      2.00000
     21     -28.4417      2.00000
     22     -28.4317      2.00000
     23     -28.4162      2.00000
     24     -28.4137      2.00000
     25     -28.3963      2.00000
     26     -28.3871      2.00000
     27     -28.3809      2.00000
     28     -28.3671      2.00000
     29     -28.2237      2.00000
     30     -28.2151      2.00000
     31     -28.1590      2.00000
     32     -28.1392      2.00000
     33     -25.5510      2.00000
     34     -25.4634      2.00000
     35     -25.4606      2.00000
     36     -25.4188      2.00000
     37     -25.2849      2.00000
     38     -25.2716      2.00000
     39     -25.2508      2.00000
     40     -25.2282      2.00000
     41     -25.2254      2.00000
     42     -25.2176      2.00000
     43     -25.2033      2.00000
     44     -25.1998      2.00000
     45     -25.1978      2.00000
     46     -25.1919      2.00000
     47     -25.1053      2.00000
     48     -25.0402      2.00000
     49     -25.0343      2.00000
     50     -24.9639      2.00000
     51     -24.3794      2.00000
     52     -24.3573      2.00000
     53     -24.3274      2.00000
     54     -24.3002      2.00000
     55     -24.2850      2.00000
     56     -24.2771      2.00000
     57     -21.0408      2.00000
     58     -21.0324      2.00000
     59     -21.0189      2.00000
     60     -21.0097      2.00000
     61     -21.0026      2.00000
     62     -20.9884      2.00000
     63       4.0171      2.00000
     64       4.3867      2.00000
     65       4.7078      2.00000
     66       4.9919      2.00000
     67       5.3474      2.00000
     68       5.5059      2.00000
     69       5.8056      2.00000
     70       6.1985      2.00000
     71       6.5534      2.00000
     72       6.6040      2.00000
     73       6.6710      2.00000
     74       6.7130      2.00000
     75       6.7674      2.00000
     76       6.7884      2.00000
     77       6.8436      2.00000
     78       6.9129      2.00000
     79       6.9444      2.00000
     80       6.9811      2.00000
     81       7.0031      2.00000
     82       7.0681      2.00000
     83       7.3485      2.00000
     84       7.3704      2.00000
     85       7.4570      2.00000
     86       7.4620      2.00000
     87       7.4799      2.00000
     88       7.5484      2.00000
     89       7.5898      2.00000
     90       7.6195      2.00000
     91       7.6388      2.00000
     92       7.6529      2.00000
     93       7.6980      2.00000
     94       7.7258      2.00000
     95       7.7366      2.00000
     96       7.7737      2.00000
     97       7.7790      2.00000
     98       7.8005      2.00000
     99       7.8450      2.00000
    100       7.8906      2.00000
    101       7.9168      2.00000
    102       7.9576      2.00000
    103       8.0027      2.00000
    104       8.0326      2.00000
    105       8.0562      2.00000
    106       8.0691      2.00000
    107       8.1866      2.00000
    108       8.2503      2.00000
    109       8.3479      2.00000
    110       8.6104      2.00000
    111      11.2837      0.00000
    112      11.3054      0.00000
    113      11.3420      0.00000
    114      11.4001      0.00000
    115      11.4100      0.00000
    116      11.4604      0.00000
    117      11.5362      0.00000
    118      11.5802      0.00000
    119      11.5884      0.00000
    120      11.6555      0.00000
    121      11.7484      0.00000
    122      11.7965      0.00000
    123      11.8419      0.00000
    124      11.8869      0.00000
    125      11.9559      0.00000
    126      12.0393      0.00000
    127      12.0994      0.00000
    128      12.1118      0.00000
    129      12.1979      0.00000
    130      12.2529      0.00000
    131      12.3936      0.00000
    132      12.4400      0.00000


--------------------------------------------------------------------------------------------------------


 soft charge-density along one line, spin component           1
         0         1         2         3         4         5         6         7         8         9
 total charge-density along one line
 
 pseudopotential strength for first ion, spin component:           1
  5.818 -20.397   0.000   0.002   0.002  -0.000  -0.005  -0.005
-20.397   9.302   0.000   0.003   0.003  -0.000  -0.000  -0.000
  0.000   0.000  -9.793   0.000   0.000   6.053  -0.000  -0.000
  0.002   0.003   0.000  -9.793   0.007  -0.000   6.053  -0.007
  0.002   0.003   0.000   0.007  -9.791  -0.000  -0.007   6.051
 -0.000  -0.000   6.053  -0.000  -0.000   7.905   0.000   0.000
 -0.005  -0.000  -0.000   6.053  -0.007   0.000   7.905   0.005
 -0.005  -0.000  -0.000  -0.007   6.051   0.000   0.005   7.907
  0.000   0.000   0.002   0.000   0.000  -0.003  -0.000  -0.000
  0.000   0.000   0.002   0.000   0.000  -0.003  -0.000  -0.000
 -0.000  -0.000  -0.000   0.002  -0.001   0.000  -0.002   0.001
  0.005   0.002   0.000   0.002   0.002  -0.000  -0.003  -0.003
  0.001   0.000  -0.000  -0.000   0.002   0.000   0.000  -0.002
  0.000   0.000   0.003   0.000   0.000  -0.004  -0.000  -0.000
  0.000   0.000   0.003   0.000   0.000  -0.004  -0.000  -0.000
 -0.000  -0.000  -0.000   0.002  -0.001   0.000  -0.003   0.002
  0.006   0.003   0.000   0.003   0.003  -0.000  -0.004  -0.004
  0.001   0.000  -0.000  -0.000   0.002   0.000   0.000  -0.003
 total augmentation occupancy for first ion, spin component:           1
  1.995  -0.050   0.000  -0.000  -0.000   0.000  -0.000  -0.000   0.000   0.000  -0.001   0.013   0.002   0.000   0.000   0.001
 -0.050   1.276   0.000  -0.001  -0.001   0.000  -0.002  -0.002   0.000   0.000  -0.003   0.051   0.004   0.000   0.000  -0.000
  0.000   0.000   1.996   0.000   0.000  -0.034   0.000   0.000  -0.004  -0.004   0.000   0.000   0.000   0.002   0.002   0.000
 -0.000  -0.001   0.000   1.996  -0.000   0.000  -0.034   0.001   0.000   0.000   0.004  -0.004  -0.000   0.000   0.000  -0.003
 -0.000  -0.001   0.000  -0.000   1.996   0.000   0.001  -0.034   0.000   0.000  -0.002  -0.004   0.004   0.000   0.000   0.001
  0.000   0.000  -0.034   0.000   0.000   0.071   0.000   0.000   0.000   0.001   0.000   0.000   0.000  -0.001  -0.001   0.000
 -0.000  -0.002   0.000  -0.034   0.001   0.000   0.072  -0.000   0.000   0.000  -0.008   0.000   0.000   0.000   0.000   0.003
 -0.000  -0.002   0.000   0.001  -0.034   0.000  -0.000   0.070   0.000   0.000   0.004   0.001  -0.008   0.000   0.000  -0.002
  0.000   0.000  -0.004   0.000   0.000   0.000   0.000   0.000   3.281   0.145   0.000   0.000   0.000  -1.371  -0.063   0.000
  0.000   0.000  -0.004   0.000   0.000   0.001   0.000   0.000   0.145   3.269   0.000   0.000   0.000  -0.064  -1.367   0.000
 -0.001  -0.003   0.000   0.004  -0.002   0.000  -0.008   0.004   0.000   0.000   2.468   0.047  -0.009   0.000   0.000  -1.114
  0.013   0.051   0.000  -0.004  -0.004   0.000   0.000   0.001   0.000   0.000   0.047   3.277   0.079   0.000   0.000  -0.021
  0.002   0.004   0.000  -0.000   0.004   0.000   0.000  -0.008   0.000   0.000  -0.009   0.079   2.475   0.000   0.000  -0.000
  0.000   0.000   0.002   0.000   0.000  -0.001   0.000   0.000  -1.371  -0.064   0.000   0.000   0.000   0.584   0.029   0.000
  0.000   0.000   0.002   0.000   0.000  -0.001   0.000   0.000  -0.063  -1.367   0.000   0.000   0.000   0.029   0.584   0.000
  0.001  -0.000   0.000  -0.003   0.001   0.000   0.003  -0.002   0.000   0.000  -1.114  -0.021  -0.000   0.000   0.000   0.510
 -0.011  -0.027   0.000   0.002   0.003   0.000  -0.001  -0.001   0.000   0.000  -0.021  -1.369  -0.036   0.000   0.000   0.010
 -0.001   0.000   0.000   0.000  -0.003   0.000   0.000   0.003   0.000   0.000  -0.000  -0.037  -1.113   0.000   0.000   0.002


------------------------ aborting loop because EDIFF is reached ----------------------------------------


    CHARGE:  cpu time      0.0605: real time      0.0607
    FORLOC:  cpu time      0.0005: real time      0.0005
    FORNL :  cpu time      0.5173: real time      0.5189
    STRESS:  cpu time      0.6538: real time      0.6560
    FORCOR:  cpu time      0.0047: real time      0.0047
    FORHAR:  cpu time      0.0014: real time      0.0014
    MIXING:  cpu time      0.0008: real time      0.0008
    OFIELD:  cpu time      0.0000: real time      0.0000

  FORCE on cell =-STRESS in cart. coord.  units (eV):
  Direction    XX          YY          ZZ          XY          YZ          ZX
  --------------------------------------------------------------------------------------
  Alpha Z  1867.01208  1867.01208  1867.01208
  Ewald   -7774.36829 -7713.98108 -7774.36829     0.00000     0.00000    12.64610
  Hartree  1354.65141  1414.42230  1355.59894    -0.00000    -0.00000    13.22343
  E(xc)   -1007.18466 -1007.23101 -1007.21660     0.00000     0.00000    -0.05802
  Local    1832.28062  1712.53686  1831.65067     0.00000    -0.00000   -24.30160
  n-local  -286.78443  -285.83753  -286.03887    -0.27337     0.66943    -1.81541
  augment   680.57106   680.66936   680.65161    -0.00000     0.00000    -0.19371
  Kinetic  3297.01459  3296.23335  3295.82226    -0.86601    -1.92826     1.38238
  Fock        0.00000     0.00000     0.00000     0.00000     0.00000     0.00000
  -------------------------------------------------------------------------------------
  Total     -36.80761   -36.17566   -36.88819     0.00000     0.00000     0.88316
  in kB    -207.00011  -203.44610  -207.45325     0.00000     0.00000     4.96675
  external pressure =     -205.97 kB  Pullay stress =        0.00 kB


 VOLUME and BASIS-vectors are now :
 -----------------------------------------------------------------------------
  energy-cutoff  :      250.00
  volume of cell :      284.89
      direct lattice vectors                 reciprocal lattice vectors
     6.580000000  0.000000000  0.000000000     0.151975684  0.000000000  0.000000000
     0.000000000  6.580000000  0.000000000     0.000000000  0.151975684  0.000000000
     0.000000000  0.000000000  6.580000000     0.000000000  0.000000000  0.151975684

  length of vectors
     6.580000000  6.580000000  6.580000000     0.151975684  0.151975684  0.151975684


 FORCES acting on ions
    electron-ion (+dipol)            ewald-force                    non-local-force                 convergence-correction
 -----------------------------------------------------------------------------------------------
   0.617E+02 0.291E-13 0.617E+02   -.612E+02 -.360E-14 -.612E+02   -.672E-01 0.000E+00 -.599E-01   -.433E-05 0.300E-13 -.130E-04
   -.617E+02 -.238E-13 -.617E+02   0.612E+02 0.852E-13 0.612E+02   0.672E-01 0.000E+00 0.599E-01   0.433E-05 -.660E-14 0.130E-04
   0.335E-12 0.896E-13 0.107E-11   -.853E-13 -.142E-12 0.284E-13   0.000E+00 -.414E-24 0.000E+00   0.266E-14 -.386E-13 -.157E-12
   -.662E+02 0.502E-12 0.662E+02   0.659E+02 0.571E-15 -.659E+02   -.361E-01 0.000E+00 0.895E-02   0.164E-04 0.908E-13 -.249E-04
   0.975E-12 -.292E-11 0.596E-11   -.142E-12 -.171E-12 -.568E-13   0.000E+00 -.331E-23 -.165E-23   0.632E-14 -.151E-13 0.875E-13
   0.109E-11 -.436E-11 0.565E-11   -.284E-13 -.284E-13 0.000E+00   0.000E+00 0.165E-23 -.165E-23   0.393E-14 0.309E-13 0.928E-13
   0.662E+02 -.259E-13 -.662E+02   -.659E+02 0.574E-13 0.659E+02   0.361E-01 0.000E+00 -.895E-02   -.164E-04 -.424E-13 0.249E-04
   0.219E-12 0.222E-11 0.107E-11   -.171E-12 -.199E-12 -.853E-13   0.000E+00 0.000E+00 -.827E-24   0.287E-14 0.282E-13 -.124E-12
   0.732E-13 0.647E-12 0.132E-12   -.568E-13 0.000E+00 -.142E-13   0.000E+00 0.000E+00 0.000E+00   0.126E-13 0.211E-13 0.111E-12
   0.116E-12 0.467E-12 0.159E-12   -.284E-13 -.142E-13 0.000E+00   0.000E+00 0.000E+00 0.840E-25   0.181E-13 -.291E-13 0.102E-12
   -.662E+02 -.350E-13 0.662E+02   0.659E+02 -.923E-16 -.659E+02   -.839E-01 0.000E+00 0.110E+00   0.156E-04 0.162E-13 -.226E-04
   0.117E-11 -.213E-11 -.643E-12   0.000E+00 0.000E+00 0.114E-12   0.000E+00 0.000E+00 0.000E+00   0.313E-13 -.991E-14 -.169E-12
   0.662E+02 0.530E-12 -.662E+02   -.659E+02 0.148E-12 0.659E+02   0.839E-01 0.000E+00 -.110E+00   -.156E-04 0.394E-13 0.226E-04
   -.662E+02 0.529E-12 -.662E+02   0.659E+02 0.305E-13 0.659E+02   -.822E-01 0.000E+00 -.852E-01   0.151E-04 0.743E-13 0.224E-04
   0.141E-11 0.398E-11 -.794E-11   0.853E-13 0.142E-12 0.853E-13   0.000E+00 0.000E+00 0.000E+00   0.226E-13 0.381E-13 -.150E-12
   0.662E+02 -.227E-13 0.662E+02   -.659E+02 0.142E-12 -.659E+02   0.822E-01 0.000E+00 0.852E-01   -.151E-04 -.307E-13 -.224E-04
 -----------------------------------------------------------------------------------------------
   0.685E-11 -.529E-12 0.776E-11   0.284E-13 0.476E-13 0.142E-13   0.000E+00 -.207E-23 0.000E+00   -.110E-12 0.197E-12 -.232E-12
 
 
 POSITION                                       TOTAL-FORCE (eV/Angst)
 -----------------------------------------------------------------------------------
      3.29000      3.29000      0.00000         0.464346     -0.000000      0.456333
      0.00000      0.00000      3.29000        -0.464346     -0.000000     -0.456333
      1.64500      1.64500      1.64500         0.000000     -0.000000      0.000000
      0.00000      3.29000      0.00000        -0.332272     -0.000000      0.309227
      4.93500      1.64500      4.93500         0.000000     -0.000000      0.000000
      4.93500      4.93500      4.93500         0.000000     -0.000000      0.000000
      3.29000      0.00000      3.29000         0.332272     -0.000000     -0.309227
      1.64500      4.93500      1.64500         0.000000      0.000000      0.000000
      1.64500      4.93500      4.93500         0.000000     -0.000000      0.000000
      1.64500      1.64500      4.93500         0.000000     -0.000000      0.000000
      0.00000      0.00000      0.00000        -0.394799     -0.000000      0.413877
      4.93500      1.64500      1.64500         0.000000     -0.000000      0.000000
      3.29000      3.29000      3.29000         0.394799     -0.000000     -0.413877
      0.00000      3.29000      3.29000        -0.402293     -0.000000     -0.412092
      4.93500      4.93500      1.64500         0.000000     -0.000000      0.000000
      3.29000      0.00000      0.00000         0.402293     -0.000000      0.412092
 -----------------------------------------------------------------------------------
    total drift:                                0.000000     -0.000000      0.000000


--------------------------------------------------------------------------------------------------------



  FREE ENERGIE OF THE ION-ELECTRON SYSTEM (eV)
  ---------------------------------------------------
  free  energy   TOTEN  =      -187.21810800 eV

  energy  without entropy=     -187.21605983  energy(sigma->0) =     -187.21708391
 


--------------------------------------------------------------------------------------------------------


    POTLOK:  cpu time      0.0061: real time      0.0062


--------------------------------------------------------------------------------------------------------


     LOOP+:  cpu time     56.4016: real time     56.7359
    4ORBIT:  cpu time      0.0000: real time      0.0000

 total amount of memory used by VASP MPI-rank0    41501. kBytes
=======================================================================

   base      :      30000. kBytes
   nonl-proj :       4907. kBytes
   fftplans  :        455. kBytes
   grid      :        919. kBytes
   one-center:         31. kBytes
   wavefun   :       5189. kBytes
 
  
  
 General timing and accounting informations for this job:
 ========================================================
  
                  Total CPU time used (sec):       59.258
                            User time (sec):       58.253
                          System time (sec):        1.005
                         Elapsed time (sec):       60.780
  
                   Maximum memory used (kb):       81868.
                   Average memory used (kb):          N/A
  
                          Minor page faults:         7968
                          Major page faults:            0
                 Voluntary context switches:          220
