 vasp.6.3.1 04May22 (build Jul 26 2022 04:02:40) complex                        
  
 executed on             LinuxIFC date 2023.11.30  04:06:20
 running on   48 total cores
 distrk:  each k-point on   48 cores,    1 groups
 distr:  one band on NCORE=  12 cores,    4 groups


--------------------------------------------------------------------------------------------------------


 INCAR:
   ISTART = 0
   NWRITE = 2
   PREC = Accurate
   ENCUT = 250
   GGA = PE
   NSW = 0
   ISIF = 2
   ISYM = 2
   NBLOCK = 1
   KBLOCK = 1
   IBRION = -1
   NELM = 80
   EDIFF = 1E-08
   EDIFFG = -0.01
   ALGO = Normal
   LDIAG = .TRUE.
   LREAL = .FALSE.
   ISMEAR = 0
   SIGMA = 0.02
   ICHARG = 2
   LPLANE = .TRUE.
   NPAR = 4
   LSCALU = .FALSE.
   NSIM = 4
   LWAVE = .FALSE.
   LCHARG = .FALSE.
   ICORELEVEL = 1

 POTCAR:    PAW_PBE Nb_sv 25May2007               
 POTCAR:    PAW_PBE Mo_sv 02Feb2006               
 POTCAR:    PAW_PBE Ta_pv 07Sep2000               
 POTCAR:    PAW_PBE W_sv 04Sep2015                
 POTCAR:    PAW_PBE Nb_sv 25May2007               
   SHA256 =  0e8fc07c9fcd1164cf2ade22d0399fd28f85e91cd773dfa6cf24839a48c95e24 Nb_sv/POTCAR          
   COPYR  = (c) Copyright 25May2007 Georg Kresse                                                    
   COPYR  = This file is part of the software VASP. Any use, copying, and all other rights are regul
   COPYR  = If you do not have a valid VASP license, you may not use, copy or distribute this file. 
   VRHFIN =Nb: 4p5s4d                                                                               
   LEXCH  = PE                                                                                      
   EATOM  =  1555.1913 eV,  114.3033 Ry                                                             
                                                                                                    
   TITEL  = PAW_PBE Nb_sv 25May2007                                                                 
   LULTRA =        F    use ultrasoft PP ?                                                          
   IUNSCR =        1    unscreen: 0-lin 1-nonlin 2-no                                               
   RPACOR =    1.800    partial core radius                                                         
   POMASS =   92.910; ZVAL   =   13.000    mass and valenz                                          
   RCORE  =    2.400    outmost cutoff radius                                                       
   RWIGS  =    2.400; RWIGS  =    1.270    wigner-seitz radius (au A)                               
   ENMAX  =  293.235; ENMIN  =  219.927 eV                                                          
   ICORE  =        3    local potential                                                             
   LCOR   =        T    correct aug charges                                                         
   LPAW   =        T    paw PP                                                                      
   EAUG   =  455.659                                                                                
   DEXC   =    0.000                                                                                
   RMAX   =    2.456    core radius for proj-oper                                                   
   RAUG   =    1.300    factor for augmentation sphere                                              
   RDEP   =    2.451    radius for radial grids                                                     
   RDEPT  =    1.956    core radius for aug-charge                                                  
                                                                                                    
   Atomic configuration                                                                             
   11 entries                                                                                       
     n  l   j            E        occ.                                                              
     1  0  0.50    -18805.2457   2.0000                                                             
     2  0  0.50     -2630.2869   2.0000                                                             
     2  1  1.50     -2348.4046   6.0000                                                             
     3  0  0.50      -438.8757   2.0000                                                             
     3  1  1.50      -346.7588   6.0000                                                             
     3  2  2.50      -196.2560  10.0000                                                             
     4  0  0.50       -58.3859   2.0000                                                             
     5  0  0.50        -3.9816   1.0000                                                             
     4  1  1.50       -34.5141   6.0000                                                             
     4  2  2.50        -3.0408   4.0000                                                             
     4  3  2.50        -1.3606   0.0000                                                             
   Description                                                                                      
     l       E           TYP  RCUT    TYP  RCUT                                                     
     0    -58.3859094     23  2.200                                                                 
     0     -3.9816262     23  2.200                                                                 
     1    -34.5140738     23  2.200                                                                 
     1     13.6058260     23  2.200                                                                 
     2     -3.0408010     23  2.200                                                                 
     2     -0.1283038     23  2.200                                                                 
     3     -1.3605826     23  2.400                                                                 
  local pseudopotential read in
  partial core-charges read in
  partial kinetic energy density read in
  atomic valenz-charges read in
  non local Contribution for L=           0  read in
    real space projection operators read in
  non local Contribution for L=           0  read in
    real space projection operators read in
  non local Contribution for L=           1  read in
    real space projection operators read in
  non local Contribution for L=           1  read in
    real space projection operators read in
  non local Contribution for L=           2  read in
    real space projection operators read in
  non local Contribution for L=           2  read in
    real space projection operators read in
    PAW grid and wavefunctions read in
 
   number of l-projection  operators is LMAX  =           6
   number of lm-projection operators is LMMAX =          18
 
 POTCAR:    PAW_PBE Mo_sv 02Feb2006               
   SHA256 =  2731df97e41766cc617548c5a8267718fdef1f509ac6bafa01e745abea2bdfaa Mo_sv/POTCAR          
   COPYR  = (c) Copyright 02Feb2006 Georg Kresse                                                    
   COPYR  = This file is part of the software VASP. Any use, copying, and all other rights are regul
   COPYR  = If you do not have a valid VASP license, you may not use, copy or distribute this file. 
   VRHFIN =Mo: 4p5s4d                                                                               
   LEXCH  = PE                                                                                      
   EATOM  =  1862.2866 eV,  136.8742 Ry                                                             
                                                                                                    
   TITEL  = PAW_PBE Mo_sv 02Feb2006                                                                 
   LULTRA =        F    use ultrasoft PP ?                                                          
   IUNSCR =        1    unscreen: 0-lin 1-nonlin 2-no                                               
   RPACOR =    2.200    partial core radius                                                         
   POMASS =   95.940; ZVAL   =   14.000    mass and valenz                                          
   RCORE  =    2.500    outmost cutoff radius                                                       
   RWIGS  =    2.750; RWIGS  =    1.455    wigner-seitz radius (au A)                               
   ENMAX  =  242.676; ENMIN  =  182.007 eV                                                          
   ICORE  =        3    local potential                                                             
   LCOR   =        T    correct aug charges                                                         
   LPAW   =        T    paw PP                                                                      
   EAUG   =  446.014                                                                                
   DEXC   =    0.000                                                                                
   RMAX   =    2.563    core radius for proj-oper                                                   
   RAUG   =    1.300    factor for augmentation sphere                                              
   RDEP   =    2.641    radius for radial grids                                                     
   RDEPT  =    2.031    core radius for aug-charge                                                  
                                                                                                    
   Atomic configuration                                                                             
   11 entries                                                                                       
     n  l   j            E        occ.                                                              
     1  0  0.50    -19819.0341   2.0000                                                             
     2  0  0.50     -2799.0127   2.0000                                                             
     2  1  1.50     -2502.0276   6.0000                                                             
     3  0  0.50      -476.4449   2.0000                                                             
     3  1  1.50      -379.1496   6.0000                                                             
     3  2  2.50      -220.9367  10.0000                                                             
     4  0  0.50       -64.3378   2.0000                                                             
     5  0  0.50        -4.0862   1.0000                                                             
     4  1  1.50       -38.4773   6.0000                                                             
     4  2  2.50        -3.7535   5.0000                                                             
     4  3  2.50        -1.3606   0.0000                                                             
   Description                                                                                      
     l       E           TYP  RCUT    TYP  RCUT                                                     
     0    -64.3377829     23  2.100                                                                 
     0     -4.0861640     23  2.400                                                                 
     1    -38.4772993     23  2.100                                                                 
     1     13.6058260     23  2.100                                                                 
     2     -3.7534941     23  2.400                                                                 
     2     -5.1140767     23  2.400                                                                 
     3     -4.0817478     23  2.500                                                                 
  local pseudopotential read in
  partial core-charges read in
  partial kinetic energy density read in
  atomic valenz-charges read in
  non local Contribution for L=           0  read in
    real space projection operators read in
  non local Contribution for L=           0  read in
    real space projection operators read in
  non local Contribution for L=           1  read in
    real space projection operators read in
  non local Contribution for L=           1  read in
    real space projection operators read in
  non local Contribution for L=           2  read in
    real space projection operators read in
  non local Contribution for L=           2  read in
    real space projection operators read in
    PAW grid and wavefunctions read in
 
   number of l-projection  operators is LMAX  =           6
   number of lm-projection operators is LMMAX =          18
 
 POTCAR:    PAW_PBE Ta_pv 07Sep2000               
   SHA256 =  00d0a14a36c127416459414afb8617d9754996fffa60a2465888e660b20a452f Ta_pv/POTCAR          
   COPYR  = (c) Copyright 07Sep2000 Georg Kresse                                                    
   COPYR  = This file is part of the software VASP. Any use, copying, and all other rights are regul
   COPYR  = If you do not have a valid VASP license, you may not use, copy or distribute this file. 
   VRHFIN =Ta:  5p6s5d                                                                              
   LEXCH  = PE                                                                                      
   EATOM  =  1047.1984 eV,   76.9669 Ry                                                             
                                                                                                    
   TITEL  = PAW_PBE Ta_pv 07Sep2000                                                                 
   LULTRA =        F    use ultrasoft PP ?                                                          
   IUNSCR =        1    unscreen: 0-lin 1-nonlin 2-no                                               
   RPACOR =    2.330    partial core radius                                                         
   POMASS =  180.948; ZVAL   =   11.000    mass and valenz                                          
   RCORE  =    2.500    outmost cutoff radius                                                       
   RWIGS  =    2.840; RWIGS  =    1.503    wigner-seitz radius (au A)                               
   ENMAX  =  223.667; ENMIN  =  167.750 eV                                                          
   RCLOC  =    2.205    cutoff for local pot                                                        
   LCOR   =        T    correct aug charges                                                         
   LPAW   =        T    paw PP                                                                      
   EAUG   =  377.421                                                                                
   DEXC   =    0.000                                                                                
   RMAX   =    2.551    core radius for proj-oper                                                   
   RAUG   =    1.300    factor for augmentation sphere                                              
   RDEP   =    2.526    radius for radial grids                                                     
   RDEPT  =    2.132    core radius for aug-charge                                                  
                                                                                                    
   Atomic configuration                                                                             
   15 entries                                                                                       
     n  l   j            E        occ.                                                              
     1  0  0.50    -67341.2801   2.0000                                                             
     2  0  0.50    -11566.9369   2.0000                                                             
     2  1  1.50    -10134.1175   6.0000                                                             
     3  0  0.50     -2648.5614   2.0000                                                             
     3  1  1.50     -2222.6006   6.0000                                                             
     3  2  2.50     -1726.3114  10.0000                                                             
     4  0  0.50      -538.6957   2.0000                                                             
     4  1  1.50      -399.0125   6.0000                                                             
     4  2  2.50      -220.3955  10.0000                                                             
     4  3  3.50       -23.0371  14.0000                                                             
     5  0  0.50       -71.2900   2.0000                                                             
     5  1  1.50       -37.8224   6.0000                                                             
     5  2  2.50        -2.6455   4.0000                                                             
     6  0  0.50        -4.9623   1.0000                                                             
     5  3  2.50        -1.3606   0.0000                                                             
   Description                                                                                      
     l       E           TYP  RCUT    TYP  RCUT                                                     
     1    -37.8224449     23  2.500                                                                 
     1      1.3605826     23  2.500                                                                 
     2     -2.6454718     23  2.500                                                                 
     2     -0.6258570     23  2.500                                                                 
     0     -4.9622674     23  2.500                                                                 
     0      4.7531427     23  2.500                                                                 
  local pseudopotential read in
  partial core-charges read in
  partial kinetic energy density read in
  atomic valenz-charges read in
  non local Contribution for L=           1  read in
    real space projection operators read in
  non local Contribution for L=           1  read in
    real space projection operators read in
  non local Contribution for L=           2  read in
    real space projection operators read in
  non local Contribution for L=           2  read in
    real space projection operators read in
  non local Contribution for L=           0  read in
    real space projection operators read in
  non local Contribution for L=           0  read in
    real space projection operators read in
    PAW grid and wavefunctions read in
 
   number of l-projection  operators is LMAX  =           6
   number of lm-projection operators is LMMAX =          18
 
 POTCAR:    PAW_PBE W_sv 04Sep2015                
   SHA256 =  931c2d770f65867ef30f3db3421922900fc0890ebac5c3e12f63b6a2064023d7 W_sv/POTCAR           
   COPYR  = (c) Copyright 04Sep2015 Georg Kresse                                                    
   COPYR  = This file is part of the software VASP. Any use, copying, and all other rights are regul
   COPYR  = If you do not have a valid VASP license, you may not use, copy or distribute this file. 
   VRHFIN =W : 5p6s5d                                                                               
   LEXCH  = PE                                                                                      
   EATOM  =  1865.5791 eV,  137.1162 Ry                                                             
                                                                                                    
   TITEL  = PAW_PBE W_sv 04Sep2015                                                                  
   LULTRA =        F    use ultrasoft PP ?                                                          
   IUNSCR =        1    unscreen: 0-lin 1-nonlin 2-no                                               
   RPACOR =    2.330    partial core radius                                                         
   POMASS =  183.850; ZVAL   =   14.000    mass and valenz                                          
   RCORE  =    2.500    outmost cutoff radius                                                       
   RWIGS  =    2.750; RWIGS  =    1.455    wigner-seitz radius (au A)                               
   ENMAX  =  223.057; ENMIN  =  167.293 eV                                                          
   ICORE  =        3    local potential                                                             
   LCOR   =        T    correct aug charges                                                         
   LPAW   =        T    paw PP                                                                      
   EAUG   =  373.438                                                                                
   DEXC   =    0.000                                                                                
   RMAX   =    2.565    core radius for proj-oper                                                   
   RAUG   =    1.300    factor for augmentation sphere                                              
   RDEP   =    2.539    radius for radial grids                                                     
   RDEPT  =    2.126    core radius for aug-charge                                                  
                                                                                                    
   Atomic configuration                                                                             
   15 entries                                                                                       
     n  l   j            E        occ.                                                              
     1  0  0.50    -69465.5834   2.0000                                                             
     2  0  0.50    -11986.2640   2.0000                                                             
     2  1  1.50    -10479.8613   6.0000                                                             
     3  0  0.50     -2759.0756   2.0000                                                             
     3  1  1.50     -2313.1855   6.0000                                                             
     3  2  2.50     -1801.1183  10.0000                                                             
     4  0  0.50      -567.6789   2.0000                                                             
     4  1  1.50      -421.4692   6.0000                                                             
     4  2  2.50      -236.3471  10.0000                                                             
     4  3  3.50       -31.2665  14.0000                                                             
     5  0  0.50       -77.1084   2.0000                                                             
     6  0  0.50        -5.1438   1.0000                                                             
     5  1  1.50       -41.3856   6.0000                                                             
     5  2  2.50        -3.3185   5.0000                                                             
     5  3  2.50        -1.3606   0.0000                                                             
   Description                                                                                      
     l       E           TYP  RCUT    TYP  RCUT                                                     
     0    -77.1084470     23  2.100                                                                 
     0     -5.1437956     23  2.300                                                                 
     1    -41.3855615     23  2.500                                                                 
     1     -2.7211652     23  2.500                                                                 
     2     -3.3185025     23  2.500                                                                 
     2     -1.5965151     23  2.500                                                                 
     3     -1.3605826     23  2.500                                                                 
  local pseudopotential read in
  partial core-charges read in
  partial kinetic energy density read in
  kinetic energy density of atom read in
  atomic valenz-charges read in
  non local Contribution for L=           0  read in
    real space projection operators read in
  non local Contribution for L=           0  read in
    real space projection operators read in
  non local Contribution for L=           1  read in
    real space projection operators read in
  non local Contribution for L=           1  read in
    real space projection operators read in
  non local Contribution for L=           2  read in
    real space projection operators read in
  non local Contribution for L=           2  read in
    real space projection operators read in
    PAW grid and wavefunctions read in
 
   number of l-projection  operators is LMAX  =           6
   number of lm-projection operators is LMMAX =          18
 
  PAW_PBE Nb_sv 25May2007               :
 energy of atom  1       EATOM=-1555.1913
 kinetic energy error for atom=    0.2155 (will be added to EATOM!!)
  PAW_PBE Mo_sv 02Feb2006               :
 energy of atom  2       EATOM=-1862.2866
 kinetic energy error for atom=    0.1102 (will be added to EATOM!!)
  PAW_PBE Ta_pv 07Sep2000               :
 energy of atom  3       EATOM=-1047.1984
 kinetic energy error for atom=    0.0394 (will be added to EATOM!!)
  PAW_PBE W_sv 04Sep2015                :
 energy of atom  4       EATOM=-1865.5791
 kinetic energy error for atom=    0.0589 (will be added to EATOM!!)
 
 
 POSCAR: Nb-Mo-Ta-W alloy
  positions in direct lattice
  No initial velocities read in
 exchange correlation table for  LEXCH =        8
   RHO(1)=    0.500       N(1)  =     2000
   RHO(2)=  100.500       N(2)  =     4000
 


--------------------------------------------------------------------------------------------------------


 ion  position               nearest neighbor table
   1  0.250  0.750  0.750-   4 2.85   5 2.85   7 2.85   8 2.85   9 2.85  11 2.85  13 2.85  15 2.85

   2  0.750  0.250  0.250-   4 2.85   5 2.85   7 2.85   8 2.85   9 2.85  11 2.85  13 2.85  15 2.85

   3  0.750  0.750  0.250-   4 2.85   5 2.85   7 2.85   8 2.85   9 2.85  11 2.85  13 2.85  15 2.85

   4  0.500  0.500  0.500-   1 2.85   2 2.85   3 2.85   6 2.85  10 2.85  12 2.85  14 2.85  16 2.85
                             9 3.29  15 3.29  13 3.29  13 3.29  15 3.29   9 3.29
   5  0.000  0.500  0.000-   1 2.85   2 2.85   3 2.85   6 2.85  10 2.85  12 2.85  14 2.85  16 2.85
                            13 3.29   7 3.29   9 3.29   9 3.29   7 3.29  13 3.29
   6  0.750  0.250  0.750-   4 2.85   5 2.85   7 2.85   8 2.85   9 2.85  11 2.85  13 2.85  15 2.85
                            10 3.29  16 3.29  16 3.29  10 3.29
   7  0.000  0.000  0.000-   1 2.85   2 2.85   3 2.85   6 2.85  10 2.85  12 2.85  14 2.85  16 2.85
                             8 3.29   5 3.29  11 3.29  11 3.29   5 3.29   8 3.29
   8  0.500  0.000  0.000-   1 2.85   2 2.85   3 2.85   6 2.85  10 2.85  12 2.85  14 2.85  16 2.85
                             7 3.29  15 3.29  13 3.29  15 3.29  13 3.29   7 3.29
   9  0.000  0.500  0.500-   1 2.85   2 2.85   3 2.85   6 2.85  10 2.85  12 2.85  14 2.85  16 2.85
                             4 3.29   5 3.29  11 3.29   5 3.29  11 3.29   4 3.29
  10  0.250  0.250  0.750-   4 2.85   5 2.85   7 2.85   8 2.85   9 2.85  11 2.85  13 2.85  15 2.85
                            14 3.29   6 3.29  14 3.29   6 3.29
  11  0.000  0.000  0.500-   1 2.85   2 2.85   3 2.85   6 2.85  10 2.85  12 2.85  14 2.85  16 2.85
                             7 3.29  15 3.29   9 3.29   7 3.29   9 3.29  15 3.29
  12  0.250  0.750  0.250-   4 2.85   5 2.85   7 2.85   8 2.85   9 2.85  11 2.85  13 2.85  15 2.85
                            14 3.29  14 3.29
  13  0.500  0.500  0.000-   1 2.85   2 2.85   3 2.85   6 2.85  10 2.85  12 2.85  14 2.85  16 2.85
                             4 3.29   8 3.29   5 3.29   4 3.29   8 3.29   5 3.29
  14  0.250  0.250  0.250-   4 2.85   5 2.85   7 2.85   8 2.85   9 2.85  11 2.85  13 2.85  15 2.85
                            10 3.29  12 3.29  10 3.29  12 3.29
  15  0.500  0.000  0.500-   1 2.85   2 2.85   3 2.85   6 2.85  10 2.85  12 2.85  14 2.85  16 2.85
                             8 3.29   4 3.29  11 3.29   8 3.29   4 3.29  11 3.29
  16  0.750  0.750  0.750-   4 2.85   5 2.85   7 2.85   8 2.85   9 2.85  11 2.85  13 2.85  15 2.85
                             6 3.29   6 3.29
 
  LATTYP: Found a simple cubic cell.
 ALAT       =     6.5800000000
  
  Lattice vectors:
  
 A1 = (   6.5800000000,   0.0000000000,   0.0000000000)
 A2 = (   0.0000000000,   6.5800000000,   0.0000000000)
 A3 = (   0.0000000000,   0.0000000000,   6.5800000000)


Analysis of symmetry for initial positions (statically):
=====================================================================
 Subroutine PRICEL returns:
 Original cell was already a primitive cell.
 

 Routine SETGRP: Setting up the symmetry group for a 
 simple cubic supercell.


 Subroutine GETGRP returns: Found  1 space group operations
 (whereof  1 operations were pure point group operations)
 out of a pool of 48 trial point group operations.


The static configuration has the point symmetry C_1 .


Analysis of symmetry for dynamics (positions and initial velocities):
=====================================================================
 Subroutine PRICEL returns:
 Original cell was already a primitive cell.
 

 Routine SETGRP: Setting up the symmetry group for a 
 simple cubic supercell.


 Subroutine GETGRP returns: Found  1 space group operations
 (whereof  1 operations were pure point group operations)
 out of a pool of 48 trial point group operations.


The dynamic configuration has the point symmetry C_1 .


 Subroutine INISYM returns: Found  1 space group operations
 (whereof  1 operations are pure point group operations),
 and found     1 'primitive' translations


----------------------------------------------------------------------------------------

                                     Primitive cell                                     

  volume of cell :     284.8903

  direct lattice vectors                    reciprocal lattice vectors
     6.580000000  0.000000000  0.000000000     0.151975684  0.000000000  0.000000000
     0.000000000  6.580000000  0.000000000     0.000000000  0.151975684  0.000000000
     0.000000000  0.000000000  6.580000000     0.000000000  0.000000000  0.151975684

  length of vectors
     6.580000000  6.580000000  6.580000000     0.151975684  0.151975684  0.151975684

  position of ions in fractional coordinates (direct lattice)
     0.250000000  0.750000000  0.750000000
     0.750000000  0.250000000  0.250000000
     0.750000000  0.750000000  0.250000000
     0.500000000  0.500000000  0.500000000
     0.000000000  0.500000000  0.000000000
     0.750000000  0.250000000  0.750000000
     0.000000000  0.000000000  0.000000000
     0.500000000  0.000000000  0.000000000
     0.000000000  0.500000000  0.500000000
     0.250000000  0.250000000  0.750000000
     0.000000000  0.000000000  0.500000000
     0.250000000  0.750000000  0.250000000
     0.500000000  0.500000000  0.000000000
     0.250000000  0.250000000  0.250000000
     0.500000000  0.000000000  0.500000000
     0.750000000  0.750000000  0.750000000

  ion indices of the primitive-cell ions
   primitive index   ion index
                 1           1
                 2           2
                 3           3
                 4           4
                 5           5
                 6           6
                 7           7
                 8           8
                 9           9
                10          10
                11          11
                12          12
                13          13
                14          14
                15          15
                16          16

----------------------------------------------------------------------------------------

 
 
 KPOINTS: K-Spacing Value to Generate K-Mesh: 0.03

Automatic generation of k-mesh.
 Grid dimensions read from file:
 generate k-points for:    5    5    5

 Generating k-lattice:

  Cartesian coordinates                     Fractional coordinates (reciprocal lattice)
     0.030395137  0.000000000  0.000000000     0.200000000  0.000000000  0.000000000
     0.000000000  0.030395137  0.000000000     0.000000000  0.200000000  0.000000000
     0.000000000  0.000000000  0.030395137     0.000000000  0.000000000  0.200000000

  Length of vectors
     0.030395137  0.030395137  0.030395137

  Shift w.r.t. Gamma in fractional coordinates (k-lattice)
     0.000000000  0.000000000  0.000000000

 
 Subroutine IBZKPT returns following result:
 ===========================================
 
 Found     63 irreducible k-points:
 
 Following reciprocal coordinates:
            Coordinates               Weight
  0.000000  0.000000  0.000000      1.000000
  0.200000  0.000000  0.000000      2.000000
  0.000000  0.200000  0.000000      2.000000
  0.000000  0.000000  0.200000      2.000000
  0.400000  0.000000  0.000000      2.000000
  0.000000  0.400000  0.000000      2.000000
  0.000000  0.000000  0.400000      2.000000
  0.200000  0.200000  0.000000      2.000000
  0.000000  0.200000  0.200000      2.000000
  0.200000  0.000000  0.200000      2.000000
 -0.200000  0.200000  0.000000      2.000000
 -0.200000  0.000000  0.200000      2.000000
  0.000000 -0.200000  0.200000      2.000000
  0.400000  0.200000  0.000000      2.000000
  0.000000  0.400000  0.200000      2.000000
  0.200000  0.000000  0.400000      2.000000
 -0.200000  0.400000  0.000000      2.000000
 -0.400000  0.000000  0.200000      2.000000
  0.000000  0.200000  0.400000      2.000000
  0.000000 -0.400000  0.200000      2.000000
 -0.200000  0.000000  0.400000      2.000000
  0.400000  0.000000  0.200000      2.000000
  0.000000 -0.200000  0.400000      2.000000
  0.400000 -0.200000  0.000000      2.000000
  0.200000  0.400000  0.000000      2.000000
  0.400000  0.400000  0.000000      2.000000
  0.000000  0.400000  0.400000      2.000000
  0.400000  0.000000  0.400000      2.000000
 -0.400000  0.400000  0.000000      2.000000
 -0.400000  0.000000  0.400000      2.000000
  0.000000 -0.400000  0.400000      2.000000
  0.200000  0.200000  0.200000      2.000000
 -0.200000  0.200000  0.200000      2.000000
 -0.200000 -0.200000  0.200000      2.000000
  0.200000 -0.200000  0.200000      2.000000
  0.400000  0.200000  0.200000      2.000000
  0.200000  0.400000  0.200000      2.000000
  0.200000  0.200000  0.400000      2.000000
 -0.200000  0.400000  0.200000      2.000000
 -0.400000  0.200000  0.200000      2.000000
 -0.200000  0.200000  0.400000      2.000000
 -0.400000 -0.200000  0.200000      2.000000
 -0.200000 -0.400000  0.200000      2.000000
 -0.200000 -0.200000  0.400000      2.000000
  0.200000 -0.400000  0.200000      2.000000
  0.400000 -0.200000  0.200000      2.000000
  0.200000 -0.200000  0.400000      2.000000
  0.400000  0.400000  0.200000      2.000000
  0.200000  0.400000  0.400000      2.000000
  0.400000  0.200000  0.400000      2.000000
 -0.400000  0.400000  0.200000      2.000000
 -0.400000  0.200000  0.400000      2.000000
 -0.200000  0.400000  0.400000      2.000000
 -0.400000 -0.400000  0.200000      2.000000
 -0.200000 -0.400000  0.400000      2.000000
 -0.400000 -0.200000  0.400000      2.000000
  0.400000 -0.400000  0.200000      2.000000
  0.400000 -0.200000  0.400000      2.000000
  0.200000 -0.400000  0.400000      2.000000
  0.400000  0.400000  0.400000      2.000000
 -0.400000  0.400000  0.400000      2.000000
 -0.400000 -0.400000  0.400000      2.000000
  0.400000 -0.400000  0.400000      2.000000
 
 Following cartesian coordinates:
            Coordinates               Weight
  0.000000  0.000000  0.000000      1.000000
  0.030395  0.000000  0.000000      2.000000
  0.000000  0.030395  0.000000      2.000000
  0.000000  0.000000  0.030395      2.000000
  0.060790  0.000000  0.000000      2.000000
  0.000000  0.060790  0.000000      2.000000
  0.000000  0.000000  0.060790      2.000000
  0.030395  0.030395  0.000000      2.000000
  0.000000  0.030395  0.030395      2.000000
  0.030395  0.000000  0.030395      2.000000
 -0.030395  0.030395  0.000000      2.000000
 -0.030395  0.000000  0.030395      2.000000
  0.000000 -0.030395  0.030395      2.000000
  0.060790  0.030395  0.000000      2.000000
  0.000000  0.060790  0.030395      2.000000
  0.030395  0.000000  0.060790      2.000000
 -0.030395  0.060790  0.000000      2.000000
 -0.060790  0.000000  0.030395      2.000000
  0.000000  0.030395  0.060790      2.000000
  0.000000 -0.060790  0.030395      2.000000
 -0.030395  0.000000  0.060790      2.000000
  0.060790  0.000000  0.030395      2.000000
  0.000000 -0.030395  0.060790      2.000000
  0.060790 -0.030395  0.000000      2.000000
  0.030395  0.060790  0.000000      2.000000
  0.060790  0.060790  0.000000      2.000000
  0.000000  0.060790  0.060790      2.000000
  0.060790  0.000000  0.060790      2.000000
 -0.060790  0.060790  0.000000      2.000000
 -0.060790  0.000000  0.060790      2.000000
  0.000000 -0.060790  0.060790      2.000000
  0.030395  0.030395  0.030395      2.000000
 -0.030395  0.030395  0.030395      2.000000
 -0.030395 -0.030395  0.030395      2.000000
  0.030395 -0.030395  0.030395      2.000000
  0.060790  0.030395  0.030395      2.000000
  0.030395  0.060790  0.030395      2.000000
  0.030395  0.030395  0.060790      2.000000
 -0.030395  0.060790  0.030395      2.000000
 -0.060790  0.030395  0.030395      2.000000
 -0.030395  0.030395  0.060790      2.000000
 -0.060790 -0.030395  0.030395      2.000000
 -0.030395 -0.060790  0.030395      2.000000
 -0.030395 -0.030395  0.060790      2.000000
  0.030395 -0.060790  0.030395      2.000000
  0.060790 -0.030395  0.030395      2.000000
  0.030395 -0.030395  0.060790      2.000000
  0.060790  0.060790  0.030395      2.000000
  0.030395  0.060790  0.060790      2.000000
  0.060790  0.030395  0.060790      2.000000
 -0.060790  0.060790  0.030395      2.000000
 -0.060790  0.030395  0.060790      2.000000
 -0.030395  0.060790  0.060790      2.000000
 -0.060790 -0.060790  0.030395      2.000000
 -0.030395 -0.060790  0.060790      2.000000
 -0.060790 -0.030395  0.060790      2.000000
  0.060790 -0.060790  0.030395      2.000000
  0.060790 -0.030395  0.060790      2.000000
  0.030395 -0.060790  0.060790      2.000000
  0.060790  0.060790  0.060790      2.000000
 -0.060790  0.060790  0.060790      2.000000
 -0.060790 -0.060790  0.060790      2.000000
  0.060790 -0.060790  0.060790      2.000000
 


--------------------------------------------------------------------------------------------------------




 Dimension of arrays:
   k-points           NKPTS =     63   k-points in BZ     NKDIM =     63   number of bands    NBANDS=    128
   number of dos      NEDOS =    301   number of ions     NIONS =     16
   non local maximal  LDIM  =      6   non local SUM 2l+1 LMDIM =     18
   total plane-waves  NPLWV =  46656
   max r-space proj   IRMAX =      1   max aug-charges    IRDMAX=   9546
   dimension x,y,z NGX =    36 NGY =   36 NGZ =   36
   dimension x,y,z NGXF=    72 NGYF=   72 NGZF=   72
   support grid    NGXF=    72 NGYF=   72 NGZF=   72
   ions per type =               3   3   3   7
   NGX,Y,Z   is equivalent  to a cutoff of   9.10,  9.10,  9.10 a.u.
   NGXF,Y,Z  is equivalent  to a cutoff of  18.19, 18.19, 18.19 a.u.

 SYSTEM =  unknown system                          
 POSCAR =  Nb-Mo-Ta-W alloy                        

 Startparameter for this run:
   NWRITE =      2    write-flag & timer
   PREC   = accura    normal or accurate (medium, high low for compatibility)
   ISTART =      0    job   : 0-new  1-cont  2-samecut
   ICHARG =      2    charge: 1-file 2-atom 10-const
   ISPIN  =      1    spin polarized calculation?
   LNONCOLLINEAR =      F non collinear calculations
   LSORBIT =      F    spin-orbit coupling
   INIWAV =      1    electr: 0-lowe 1-rand  2-diag
   LASPH  =      F    aspherical Exc in radial PAW
 Electronic Relaxation 1
   ENCUT  =  250.0 eV  18.37 Ry    4.29 a.u.   8.48  8.48  8.48*2*pi/ulx,y,z
   ENINI  =  250.0     initial cutoff
   ENAUG  =  455.7 eV  augmentation charge cutoff
   NELM   =     80;   NELMIN=  2; NELMDL= -5     # of ELM steps 
   EDIFF  = 0.1E-07   stopping-criterion for ELM
   LREAL  =      F    real-space projection
   NLSPLINE    = F    spline interpolate recip. space projectors
   LCOMPAT=      F    compatible to vasp.4.4
   GGA_COMPAT  = T    GGA compatible to vasp.4.4-vasp.4.6
   LMAXPAW     = -100 max onsite density
   LMAXMIX     =    2 max onsite mixed and CHGCAR
   VOSKOWN=      0    Vosko Wilk Nusair interpolation
   ROPT   =    0.00000   0.00000   0.00000   0.00000
 Ionic relaxation
   EDIFFG = -.1E-01   stopping-criterion for IOM
   NSW    =      0    number of steps for IOM
   NBLOCK =      1;   KBLOCK =      1    inner block; outer block 
   IBRION =     -1    ionic relax: 0-MD 1-quasi-New 2-CG
   NFREE  =      0    steps in history (QN), initial steepest desc. (CG)
   ISIF   =      2    stress and relaxation
   IWAVPR =     10    prediction:  0-non 1-charg 2-wave 3-comb
   ISYM   =      2    0-nonsym 1-usesym 2-fastsym
   LCORR  =      T    Harris-Foulkes like correction to forces

   POTIM  = 0.5000    time-step for ionic-motion
   TEIN   =    0.0    initial temperature
   TEBEG  =    0.0;   TEEND  =   0.0 temperature during run
   SMASS  =  -3.00    Nose mass-parameter (am)
   estimated Nose-frequenzy (Omega)   =  0.10E-29 period in steps = 0.13E+47 mass=  -0.989E-27a.u.
   SCALEE = 1.0000    scale energy and forces
   NPACO  =    256;   APACO  = 10.0  distance and # of slots for P.C.
   PSTRESS=    0.0 pullay stress

  Mass of Ions in am
   POMASS =  92.91 95.94180.95183.85
  Ionic Valenz
   ZVAL   =  13.00 14.00 11.00 14.00
  Atomic Wigner-Seitz radii
   RWIGS  =  -1.00 -1.00 -1.00 -1.00
  virtual crystal weights 
   VCA    =   1.00  1.00  1.00  1.00
   NELECT =     212.0000    total number of electrons
   NUPDOWN=      -1.0000    fix difference up-down

 DOS related values:
   EMIN   =  10.00;   EMAX   =-10.00  energy-range for DOS
   EFERMI =   0.00
   ISMEAR =     0;   SIGMA  =   0.02  broadening in eV -4-tet -1-fermi 0-gaus

 Electronic relaxation 2 (details)
   IALGO  =     38    algorithm
   LDIAG  =      T    sub-space diagonalisation (order eigenvalues)
   LSUBROT=      F    optimize rotation matrix (better conditioning)
   TURBO    =      0    0=normal 1=particle mesh
   IRESTART =      0    0=no restart 2=restart with 2 vectors
   NREBOOT  =      0    no. of reboots
   NMIN     =      0    reboot dimension
   EREF     =   0.00    reference energy to select bands
   IMIX   =      4    mixing-type and parameters
     AMIX     =   0.40;   BMIX     =  1.00
     AMIX_MAG =   1.60;   BMIX_MAG =  1.00
     AMIN     =   0.10
     WC   =   100.;   INIMIX=   1;  MIXPRE=   1;  MAXMIX= -45

 Intra band minimization:
   WEIMIN = 0.0000     energy-eigenvalue tresh-hold
   EBREAK =  0.20E-10  absolut break condition
   DEPER  =   0.30     relativ break condition  

   TIME   =   0.40     timestep for ELM

  volume/ion in A,a.u.               =      17.81       120.16
  Fermi-wavevector in a.u.,A,eV,Ry     =   1.483523  2.803452 29.944245  2.200840
  Thomas-Fermi vector in A             =   2.597174
 
 Write flags
   LWAVE        =      F    write WAVECAR
   LDOWNSAMPLE  =      F    k-point downsampling of WAVECAR
   LCHARG       =      F    write CHGCAR
   LVTOT        =      F    write LOCPOT, total local potential
   LVHAR        =      F    write LOCPOT, Hartree potential only
   LELF         =      F    write electronic localiz. function (ELF)
   LORBIT       =      0    0 simple, 1 ext, 2 COOP (PROOUT), +10 PAW based schemes


 Dipole corrections
   LMONO  =      F    monopole corrections only (constant potential shift)
   LDIPOL =      F    correct potential (dipole corrections)
   IDIPOL =      0    1-x, 2-y, 3-z, 4-all directions 
   EPSILON=  1.0000000 bulk dielectric constant

 Core level calculations are selected ICORELEVEL =  1
 Exchange correlation treatment:
   GGA     =    PE    GGA type
   LEXCH   =     8    internal setting for exchange type
   LIBXC   =     F    Libxc                    
   VOSKOWN =     0    Vosko Wilk Nusair interpolation
   LHFCALC =     F    Hartree Fock is set to
   LHFONE  =     F    Hartree Fock one center treatment
   AEXX    =    0.0000 exact exchange contribution

 Linear response parameters
   LEPSILON=     F    determine dielectric tensor
   LRPA    =     F    only Hartree local field effects (RPA)
   LNABLA  =     F    use nabla operator in PAW spheres
   LVEL    =     F    velocity operator in full k-point grid
   CSHIFT  =0.1000    complex shift for real part using Kramers Kronig
   OMEGAMAX=  -1.0    maximum frequency
   DEG_THRESHOLD= 0.2000000E-02 threshold for treating states as degnerate
   RTIME   =   -0.100 relaxation time in fs
  (WPLASMAI=    0.000 imaginary part of plasma frequency in eV, 0.658/RTIME)
   DFIELD  = 0.0000000 0.0000000 0.0000000 field for delta impulse in time
 
  Optional k-point grid parameters
   LKPOINTS_OPT  =     F    use optional k-point grid
   KPOINTS_OPT_MODE=     1    mode for optional k-point grid
 
 Orbital magnetization related:
   ORBITALMAG=     F  switch on orbital magnetization
   LCHIMAG   =     F  perturbation theory with respect to B field
   DQ        =  0.001000  dq finite difference perturbation B field
   LLRAUG    =     F  two centre corrections for induced B field



--------------------------------------------------------------------------------------------------------


 Static calculation
 charge density and potential will be updated during run
 non-spin polarized calculation
 Variant of blocked Davidson
 Davidson routine will perform the subspace rotation
 perform sub-space diagonalisation
    after iterative eigenvector-optimisation
 modified Broyden-mixing scheme, WC =      100.0
 initial mixing is a Kerker type mixing with AMIX =  0.4000 and BMIX =      1.0000
 Hartree-type preconditioning will be used
 using additional bands           22
 reciprocal scheme for non local part
 use partial core corrections
 calculate Harris-corrections to forces 
   (improved forces if not selfconsistent)
 use gradient corrections 
 use of overlap-Matrix (Vanderbilt PP)
 Gauss-broadening in eV      SIGMA  =   0.02


--------------------------------------------------------------------------------------------------------


  energy-cutoff  :      250.00
  volume of cell :      284.89
      direct lattice vectors                 reciprocal lattice vectors
     6.580000000  0.000000000  0.000000000     0.151975684  0.000000000  0.000000000
     0.000000000  6.580000000  0.000000000     0.000000000  0.151975684  0.000000000
     0.000000000  0.000000000  6.580000000     0.000000000  0.000000000  0.151975684

  length of vectors
     6.580000000  6.580000000  6.580000000     0.151975684  0.151975684  0.151975684


 
 k-points in units of 2pi/SCALE and weight: K-Spacing Value to Generate K-Mesh: 0.03
   0.00000000  0.00000000  0.00000000       0.008
   0.03039514  0.00000000  0.00000000       0.016
   0.00000000  0.03039514  0.00000000       0.016
   0.00000000  0.00000000  0.03039514       0.016
   0.06079027  0.00000000  0.00000000       0.016
   0.00000000  0.06079027  0.00000000       0.016
   0.00000000  0.00000000  0.06079027       0.016
   0.03039514  0.03039514  0.00000000       0.016
   0.00000000  0.03039514  0.03039514       0.016
   0.03039514  0.00000000  0.03039514       0.016
  -0.03039514  0.03039514  0.00000000       0.016
  -0.03039514  0.00000000  0.03039514       0.016
   0.00000000 -0.03039514  0.03039514       0.016
   0.06079027  0.03039514  0.00000000       0.016
   0.00000000  0.06079027  0.03039514       0.016
   0.03039514  0.00000000  0.06079027       0.016
  -0.03039514  0.06079027  0.00000000       0.016
  -0.06079027  0.00000000  0.03039514       0.016
   0.00000000  0.03039514  0.06079027       0.016
   0.00000000 -0.06079027  0.03039514       0.016
  -0.03039514  0.00000000  0.06079027       0.016
   0.06079027  0.00000000  0.03039514       0.016
   0.00000000 -0.03039514  0.06079027       0.016
   0.06079027 -0.03039514  0.00000000       0.016
   0.03039514  0.06079027  0.00000000       0.016
   0.06079027  0.06079027  0.00000000       0.016
   0.00000000  0.06079027  0.06079027       0.016
   0.06079027  0.00000000  0.06079027       0.016
  -0.06079027  0.06079027  0.00000000       0.016
  -0.06079027  0.00000000  0.06079027       0.016
   0.00000000 -0.06079027  0.06079027       0.016
   0.03039514  0.03039514  0.03039514       0.016
  -0.03039514  0.03039514  0.03039514       0.016
  -0.03039514 -0.03039514  0.03039514       0.016
   0.03039514 -0.03039514  0.03039514       0.016
   0.06079027  0.03039514  0.03039514       0.016
   0.03039514  0.06079027  0.03039514       0.016
   0.03039514  0.03039514  0.06079027       0.016
  -0.03039514  0.06079027  0.03039514       0.016
  -0.06079027  0.03039514  0.03039514       0.016
  -0.03039514  0.03039514  0.06079027       0.016
  -0.06079027 -0.03039514  0.03039514       0.016
  -0.03039514 -0.06079027  0.03039514       0.016
  -0.03039514 -0.03039514  0.06079027       0.016
   0.03039514 -0.06079027  0.03039514       0.016
   0.06079027 -0.03039514  0.03039514       0.016
   0.03039514 -0.03039514  0.06079027       0.016
   0.06079027  0.06079027  0.03039514       0.016
   0.03039514  0.06079027  0.06079027       0.016
   0.06079027  0.03039514  0.06079027       0.016
  -0.06079027  0.06079027  0.03039514       0.016
  -0.06079027  0.03039514  0.06079027       0.016
  -0.03039514  0.06079027  0.06079027       0.016
  -0.06079027 -0.06079027  0.03039514       0.016
  -0.03039514 -0.06079027  0.06079027       0.016
  -0.06079027 -0.03039514  0.06079027       0.016
   0.06079027 -0.06079027  0.03039514       0.016
   0.06079027 -0.03039514  0.06079027       0.016
   0.03039514 -0.06079027  0.06079027       0.016
   0.06079027  0.06079027  0.06079027       0.016
  -0.06079027  0.06079027  0.06079027       0.016
  -0.06079027 -0.06079027  0.06079027       0.016
   0.06079027 -0.06079027  0.06079027       0.016
 
 k-points in reciprocal lattice and weights: K-Spacing Value to Generate K-Mesh: 0.03
   0.00000000  0.00000000  0.00000000       0.008
   0.20000000  0.00000000  0.00000000       0.016
   0.00000000  0.20000000  0.00000000       0.016
   0.00000000  0.00000000  0.20000000       0.016
   0.40000000  0.00000000  0.00000000       0.016
   0.00000000  0.40000000  0.00000000       0.016
   0.00000000  0.00000000  0.40000000       0.016
   0.20000000  0.20000000  0.00000000       0.016
   0.00000000  0.20000000  0.20000000       0.016
   0.20000000  0.00000000  0.20000000       0.016
  -0.20000000  0.20000000  0.00000000       0.016
  -0.20000000  0.00000000  0.20000000       0.016
   0.00000000 -0.20000000  0.20000000       0.016
   0.40000000  0.20000000  0.00000000       0.016
   0.00000000  0.40000000  0.20000000       0.016
   0.20000000  0.00000000  0.40000000       0.016
  -0.20000000  0.40000000  0.00000000       0.016
  -0.40000000  0.00000000  0.20000000       0.016
   0.00000000  0.20000000  0.40000000       0.016
   0.00000000 -0.40000000  0.20000000       0.016
  -0.20000000  0.00000000  0.40000000       0.016
   0.40000000  0.00000000  0.20000000       0.016
   0.00000000 -0.20000000  0.40000000       0.016
   0.40000000 -0.20000000  0.00000000       0.016
   0.20000000  0.40000000  0.00000000       0.016
   0.40000000  0.40000000  0.00000000       0.016
   0.00000000  0.40000000  0.40000000       0.016
   0.40000000  0.00000000  0.40000000       0.016
  -0.40000000  0.40000000  0.00000000       0.016
  -0.40000000  0.00000000  0.40000000       0.016
   0.00000000 -0.40000000  0.40000000       0.016
   0.20000000  0.20000000  0.20000000       0.016
  -0.20000000  0.20000000  0.20000000       0.016
  -0.20000000 -0.20000000  0.20000000       0.016
   0.20000000 -0.20000000  0.20000000       0.016
   0.40000000  0.20000000  0.20000000       0.016
   0.20000000  0.40000000  0.20000000       0.016
   0.20000000  0.20000000  0.40000000       0.016
  -0.20000000  0.40000000  0.20000000       0.016
  -0.40000000  0.20000000  0.20000000       0.016
  -0.20000000  0.20000000  0.40000000       0.016
  -0.40000000 -0.20000000  0.20000000       0.016
  -0.20000000 -0.40000000  0.20000000       0.016
  -0.20000000 -0.20000000  0.40000000       0.016
   0.20000000 -0.40000000  0.20000000       0.016
   0.40000000 -0.20000000  0.20000000       0.016
   0.20000000 -0.20000000  0.40000000       0.016
   0.40000000  0.40000000  0.20000000       0.016
   0.20000000  0.40000000  0.40000000       0.016
   0.40000000  0.20000000  0.40000000       0.016
  -0.40000000  0.40000000  0.20000000       0.016
  -0.40000000  0.20000000  0.40000000       0.016
  -0.20000000  0.40000000  0.40000000       0.016
  -0.40000000 -0.40000000  0.20000000       0.016
  -0.20000000 -0.40000000  0.40000000       0.016
  -0.40000000 -0.20000000  0.40000000       0.016
   0.40000000 -0.40000000  0.20000000       0.016
   0.40000000 -0.20000000  0.40000000       0.016
   0.20000000 -0.40000000  0.40000000       0.016
   0.40000000  0.40000000  0.40000000       0.016
  -0.40000000  0.40000000  0.40000000       0.016
  -0.40000000 -0.40000000  0.40000000       0.016
   0.40000000 -0.40000000  0.40000000       0.016
 
 position of ions in fractional coordinates (direct lattice) 
   0.25000000  0.75000000  0.75000000
   0.75000000  0.25000000  0.25000000
   0.75000000  0.75000000  0.25000000
   0.50000000  0.50000000  0.50000000
   0.00000000  0.50000000  0.00000000
   0.75000000  0.25000000  0.75000000
   0.00000000  0.00000000  0.00000000
   0.50000000  0.00000000  0.00000000
   0.00000000  0.50000000  0.50000000
   0.25000000  0.25000000  0.75000000
   0.00000000  0.00000000  0.50000000
   0.25000000  0.75000000  0.25000000
   0.50000000  0.50000000  0.00000000
   0.25000000  0.25000000  0.25000000
   0.50000000  0.00000000  0.50000000
   0.75000000  0.75000000  0.75000000
 
 position of ions in cartesian coordinates  (Angst):
   1.64500000  4.93500000  4.93500000
   4.93500000  1.64500000  1.64500000
   4.93500000  4.93500000  1.64500000
   3.29000000  3.29000000  3.29000000
   0.00000000  3.29000000  0.00000000
   4.93500000  1.64500000  4.93500000
   0.00000000  0.00000000  0.00000000
   3.29000000  0.00000000  0.00000000
   0.00000000  3.29000000  3.29000000
   1.64500000  1.64500000  4.93500000
   0.00000000  0.00000000  3.29000000
   1.64500000  4.93500000  1.64500000
   3.29000000  3.29000000  0.00000000
   1.64500000  1.64500000  1.64500000
   3.29000000  0.00000000  3.29000000
   4.93500000  4.93500000  4.93500000
 


--------------------------------------------------------------------------------------------------------


 k-point   1 :   0.0000 0.0000 0.0000  plane waves:    2517
 k-point   2 :   0.2000 0.0000 0.0000  plane waves:    2545
 k-point   3 :   0.0000 0.2000 0.0000  plane waves:    2545
 k-point   4 :   0.0000 0.0000 0.2000  plane waves:    2545
 k-point   5 :   0.4000 0.0000 0.0000  plane waves:    2569
 k-point   6 :   0.0000 0.4000 0.0000  plane waves:    2569
 k-point   7 :   0.0000 0.0000 0.4000  plane waves:    2569
 k-point   8 :   0.2000 0.2000 0.0000  plane waves:    2562
 k-point   9 :   0.0000 0.2000 0.2000  plane waves:    2562
 k-point  10 :   0.2000 0.0000 0.2000  plane waves:    2562
 k-point  11 :  -0.2000 0.2000 0.0000  plane waves:    2562
 k-point  12 :  -0.2000 0.0000 0.2000  plane waves:    2562
 k-point  13 :   0.0000-0.2000 0.2000  plane waves:    2562
 k-point  14 :   0.4000 0.2000 0.0000  plane waves:    2566
 k-point  15 :   0.0000 0.4000 0.2000  plane waves:    2566
 k-point  16 :   0.2000 0.0000 0.4000  plane waves:    2566
 k-point  17 :  -0.2000 0.4000 0.0000  plane waves:    2566
 k-point  18 :  -0.4000 0.0000 0.2000  plane waves:    2566
 k-point  19 :   0.0000 0.2000 0.4000  plane waves:    2566
 k-point  20 :   0.0000-0.4000 0.2000  plane waves:    2566
 k-point  21 :  -0.2000 0.0000 0.4000  plane waves:    2566
 k-point  22 :   0.4000 0.0000 0.2000  plane waves:    2566
 k-point  23 :   0.0000-0.2000 0.4000  plane waves:    2566
 k-point  24 :   0.4000-0.2000 0.0000  plane waves:    2566
 k-point  25 :   0.2000 0.4000 0.0000  plane waves:    2566
 k-point  26 :   0.4000 0.4000 0.0000  plane waves:    2570
 k-point  27 :   0.0000 0.4000 0.4000  plane waves:    2570
 k-point  28 :   0.4000 0.0000 0.4000  plane waves:    2570
 k-point  29 :  -0.4000 0.4000 0.0000  plane waves:    2570
 k-point  30 :  -0.4000 0.0000 0.4000  plane waves:    2570
 k-point  31 :   0.0000-0.4000 0.4000  plane waves:    2570
 k-point  32 :   0.2000 0.2000 0.2000  plane waves:    2572
 k-point  33 :  -0.2000 0.2000 0.2000  plane waves:    2572
 k-point  34 :  -0.2000-0.2000 0.2000  plane waves:    2572
 k-point  35 :   0.2000-0.2000 0.2000  plane waves:    2572
 k-point  36 :   0.4000 0.2000 0.2000  plane waves:    2546
 k-point  37 :   0.2000 0.4000 0.2000  plane waves:    2546
 k-point  38 :   0.2000 0.2000 0.4000  plane waves:    2546
 k-point  39 :  -0.2000 0.4000 0.2000  plane waves:    2546
 k-point  40 :  -0.4000 0.2000 0.2000  plane waves:    2546
 k-point  41 :  -0.2000 0.2000 0.4000  plane waves:    2546
 k-point  42 :  -0.4000-0.2000 0.2000  plane waves:    2546
 k-point  43 :  -0.2000-0.4000 0.2000  plane waves:    2546
 k-point  44 :  -0.2000-0.2000 0.4000  plane waves:    2546
 k-point  45 :   0.2000-0.4000 0.2000  plane waves:    2546
 k-point  46 :   0.4000-0.2000 0.2000  plane waves:    2546
 k-point  47 :   0.2000-0.2000 0.4000  plane waves:    2546
 k-point  48 :   0.4000 0.4000 0.2000  plane waves:    2549
 k-point  49 :   0.2000 0.4000 0.4000  plane waves:    2549
 k-point  50 :   0.4000 0.2000 0.4000  plane waves:    2549
 k-point  51 :  -0.4000 0.4000 0.2000  plane waves:    2549
 k-point  52 :  -0.4000 0.2000 0.4000  plane waves:    2549
 k-point  53 :  -0.2000 0.4000 0.4000  plane waves:    2549
 k-point  54 :  -0.4000-0.4000 0.2000  plane waves:    2549
 k-point  55 :  -0.2000-0.4000 0.4000  plane waves:    2549
 k-point  56 :  -0.4000-0.2000 0.4000  plane waves:    2549
 k-point  57 :   0.4000-0.4000 0.2000  plane waves:    2549
 k-point  58 :   0.4000-0.2000 0.4000  plane waves:    2549
 k-point  59 :   0.2000-0.4000 0.4000  plane waves:    2549
 k-point  60 :   0.4000 0.4000 0.4000  plane waves:    2533
 k-point  61 :  -0.4000 0.4000 0.4000  plane waves:    2533
 k-point  62 :  -0.4000-0.4000 0.4000  plane waves:    2533
 k-point  63 :   0.4000-0.4000 0.4000  plane waves:    2533

 maximum and minimum number of plane-waves per node :       235      194

 maximum number of plane-waves:      2572
 maximum index in each direction: 
   IXMAX=    8   IYMAX=    8   IZMAX=    8
   IXMIN=   -8   IYMIN=   -8   IZMIN=   -8


 parallel 3D FFT for wavefunctions:
    minimum data exchange during FFTs selected (reduces bandwidth)
 parallel 3D FFT for charge:
    minimum data exchange during FFTs selected (reduces bandwidth)


 total amount of memory used by VASP MPI-rank0    48253. kBytes
=======================================================================

   base      :      30000. kBytes
   nonl-proj :       8332. kBytes
   fftplans  :        456. kBytes
   grid      :        919. kBytes
   one-center:         31. kBytes
   wavefun   :       8515. kBytes
 
     INWAV:  cpu time      0.0001: real time      0.0001
 Broyden mixing: mesh for mixing (old mesh)
   NGX = 17   NGY = 17   NGZ = 17
  (NGX  = 72   NGY  = 72   NGZ  = 72)
  gives a total of   4913 points

 initial charge density was supplied:
 charge density of overlapping atoms calculated
 number of electron     212.0000000 magnetization 
 keeping initial charge density in first step


--------------------------------------------------------------------------------------------------------


 Maximum index for augmentation-charges          517 (set IRDMAX)


--------------------------------------------------------------------------------------------------------


 First call to EWALD:  gamma=   0.269
 Maximum number of real-space cells 3x 3x 3
 Maximum number of reciprocal cells 3x 3x 3

    FEWALD:  cpu time      0.0012: real time      0.0012


--------------------------------------- Iteration      1(   1)  ---------------------------------------


    POTLOK:  cpu time      0.3329: real time      0.3930
    SETDIJ:  cpu time      0.1254: real time      0.1262
     EDDAV:  cpu time      3.5780: real time      3.6449
       DOS:  cpu time      0.0050: real time      0.0050
    --------------------------------------------
      LOOP:  cpu time      4.0413: real time      4.1691

 eigenvalue-minimisations  : 16680
 total energy-change (2. order) : 0.2087127E+04  (-0.8295431E+04)
 number of electron     212.0000000 magnetization 
 augmentation part      212.0000000 magnetization 

 Free energy of the ion-electron system (eV)
  ---------------------------------------------------
  alpha Z        PSCENC =      1906.30059516
  Ewald energy   TEWEN  =    -22437.03717314
  -Hartree energ DENC   =     -4218.26612516
  -exchange      EXHF   =         0.00000000
  -V(xc)+E(xc)   XCENC  =       841.11105405
  PAW double counting   =     20901.93953116   -20582.20506778
  entropy T*S    EENTRO =        -0.00088713
  eigenvalues    EBANDS =      -776.28996334
  atomic energy  EATOM  =     26451.57469743
  Solvation  Ediel_sol  =         0.00000000
  ---------------------------------------------------
  free energy    TOTEN  =      2087.12666125 eV

  energy without entropy =     2087.12754837  energy(sigma->0) =     2087.12710481


--------------------------------------------------------------------------------------------------------




--------------------------------------- Iteration      1(   2)  ---------------------------------------


     EDDAV:  cpu time      3.1922: real time      3.2052
       DOS:  cpu time      0.0047: real time      0.0048
    --------------------------------------------
      LOOP:  cpu time      3.1970: real time      3.2100

 eigenvalue-minimisations  : 16568
 total energy-change (2. order) :-0.2103157E+04  (-0.2039357E+04)
 number of electron     212.0000000 magnetization 
 augmentation part      212.0000000 magnetization 

 Free energy of the ion-electron system (eV)
  ---------------------------------------------------
  alpha Z        PSCENC =      1906.30059516
  Ewald energy   TEWEN  =    -22437.03717314
  -Hartree energ DENC   =     -4218.26612516
  -exchange      EXHF   =         0.00000000
  -V(xc)+E(xc)   XCENC  =       841.11105405
  PAW double counting   =     20901.93953116   -20582.20506778
  entropy T*S    EENTRO =        -0.00190170
  eigenvalues    EBANDS =     -2879.44626795
  atomic energy  EATOM  =     26451.57469743
  Solvation  Ediel_sol  =         0.00000000
  ---------------------------------------------------
  free energy    TOTEN  =       -16.03065793 eV

  energy without entropy =      -16.02875624  energy(sigma->0) =      -16.02970709


--------------------------------------------------------------------------------------------------------




--------------------------------------- Iteration      1(   3)  ---------------------------------------


     EDDAV:  cpu time      4.1687: real time      4.1857
       DOS:  cpu time      0.0047: real time      0.0047
    --------------------------------------------
      LOOP:  cpu time      4.1734: real time      4.1905

 eigenvalue-minimisations  : 23328
 total energy-change (2. order) :-0.1732554E+03  (-0.1639699E+03)
 number of electron     212.0000000 magnetization 
 augmentation part      212.0000000 magnetization 

 Free energy of the ion-electron system (eV)
  ---------------------------------------------------
  alpha Z        PSCENC =      1906.30059516
  Ewald energy   TEWEN  =    -22437.03717314
  -Hartree energ DENC   =     -4218.26612516
  -exchange      EXHF   =         0.00000000
  -V(xc)+E(xc)   XCENC  =       841.11105405
  PAW double counting   =     20901.93953116   -20582.20506778
  entropy T*S    EENTRO =        -0.00123186
  eigenvalues    EBANDS =     -3052.70230276
  atomic energy  EATOM  =     26451.57469743
  Solvation  Ediel_sol  =         0.00000000
  ---------------------------------------------------
  free energy    TOTEN  =      -189.28602290 eV

  energy without entropy =     -189.28479104  energy(sigma->0) =     -189.28540697


--------------------------------------------------------------------------------------------------------




--------------------------------------- Iteration      1(   4)  ---------------------------------------


     EDDAV:  cpu time      4.0059: real time      4.0219
       DOS:  cpu time      0.0047: real time      0.0048
    --------------------------------------------
      LOOP:  cpu time      4.0106: real time      4.0267

 eigenvalue-minimisations  : 22320
 total energy-change (2. order) :-0.1019401E+02  (-0.9933269E+01)
 number of electron     212.0000000 magnetization 
 augmentation part      212.0000000 magnetization 

 Free energy of the ion-electron system (eV)
  ---------------------------------------------------
  alpha Z        PSCENC =      1906.30059516
  Ewald energy   TEWEN  =    -22437.03717314
  -Hartree energ DENC   =     -4218.26612516
  -exchange      EXHF   =         0.00000000
  -V(xc)+E(xc)   XCENC  =       841.11105405
  PAW double counting   =     20901.93953116   -20582.20506778
  entropy T*S    EENTRO =        -0.00112986
  eigenvalues    EBANDS =     -3062.89641248
  atomic energy  EATOM  =     26451.57469743
  Solvation  Ediel_sol  =         0.00000000
  ---------------------------------------------------
  free energy    TOTEN  =      -199.48003062 eV

  energy without entropy =     -199.47890076  energy(sigma->0) =     -199.47946569


--------------------------------------------------------------------------------------------------------




--------------------------------------- Iteration      1(   5)  ---------------------------------------


     EDDAV:  cpu time      4.5666: real time      4.5914
       DOS:  cpu time      0.0049: real time      0.0049
    CHARGE:  cpu time      0.0809: real time      0.0811
    MIXING:  cpu time      0.0002: real time      0.0002
    --------------------------------------------
      LOOP:  cpu time      4.6526: real time      4.6776

 eigenvalue-minimisations  : 26520
 total energy-change (2. order) :-0.6694922E+00  (-0.6650456E+00)
 number of electron     211.9999856 magnetization 
 augmentation part       48.7547881 magnetization 

 Broyden mixing:
  rms(total) = 0.56810E+01    rms(broyden)= 0.56800E+01
  rms(prec ) = 0.62044E+01
  weight for this iteration     100.00

 Free energy of the ion-electron system (eV)
  ---------------------------------------------------
  alpha Z        PSCENC =      1906.30059516
  Ewald energy   TEWEN  =    -22437.03717314
  -Hartree energ DENC   =     -4218.26612516
  -exchange      EXHF   =         0.00000000
  -V(xc)+E(xc)   XCENC  =       841.11105405
  PAW double counting   =     20901.93953116   -20582.20506778
  entropy T*S    EENTRO =        -0.00115065
  eigenvalues    EBANDS =     -3063.56588386
  atomic energy  EATOM  =     26451.57469743
  Solvation  Ediel_sol  =         0.00000000
  ---------------------------------------------------
  free energy    TOTEN  =      -200.14952279 eV

  energy without entropy =     -200.14837214  energy(sigma->0) =     -200.14894746


--------------------------------------------------------------------------------------------------------




--------------------------------------- Iteration      1(   6)  ---------------------------------------


    POTLOK:  cpu time      0.0042: real time      0.0043
    SETDIJ:  cpu time      0.0018: real time      0.0018
     EDDAV:  cpu time      3.5575: real time      3.5713
       DOS:  cpu time      0.0046: real time      0.0046
    CHARGE:  cpu time      0.0823: real time      0.0825
    MIXING:  cpu time      0.0003: real time      0.0003
    --------------------------------------------
      LOOP:  cpu time      3.6507: real time      3.6649

 eigenvalue-minimisations  : 19064
 total energy-change (2. order) : 0.8140454E+01  (-0.2091085E+01)
 number of electron     211.9999848 magnetization 
 augmentation part       50.4624753 magnetization 

 Broyden mixing:
  rms(total) = 0.20686E+01    rms(broyden)= 0.20684E+01
  rms(prec ) = 0.24398E+01
  weight for this iteration     100.00

 eigenvalues of (default mixing * dielectric matrix)
  average eigenvalue GAMMA=   1.4633
  1.4633

 Free energy of the ion-electron system (eV)
  ---------------------------------------------------
  alpha Z        PSCENC =      1906.30059516
  Ewald energy   TEWEN  =    -22437.03717314
  -Hartree energ DENC   =     -3982.34291692
  -exchange      EXHF   =         0.00000000
  -V(xc)+E(xc)   XCENC  =       829.65268383
  PAW double counting   =     24959.13948868   -24672.37461179
  entropy T*S    EENTRO =        -0.00148918
  eigenvalues    EBANDS =     -3246.92034253
  atomic energy  EATOM  =     26451.57469743
  Solvation  Ediel_sol  =         0.00000000
  ---------------------------------------------------
  free energy    TOTEN  =      -192.00906847 eV

  energy without entropy =     -192.00757930  energy(sigma->0) =     -192.00832389


--------------------------------------------------------------------------------------------------------




--------------------------------------- Iteration      1(   7)  ---------------------------------------


    POTLOK:  cpu time      0.0054: real time      0.0112
    SETDIJ:  cpu time      0.0017: real time      0.0017
     EDDAV:  cpu time      4.0786: real time      4.0952
       DOS:  cpu time      0.0048: real time      0.0049
    CHARGE:  cpu time      0.0855: real time      0.0858
    MIXING:  cpu time      0.0003: real time      0.0003
    --------------------------------------------
      LOOP:  cpu time      4.1764: real time      4.1992

 eigenvalue-minimisations  : 23008
 total energy-change (2. order) : 0.5985744E+00  (-0.1261478E+01)
 number of electron     211.9999854 magnetization 
 augmentation part       50.5545474 magnetization 

 Broyden mixing:
  rms(total) = 0.88260E+00    rms(broyden)= 0.88237E+00
  rms(prec ) = 0.19136E+01
  weight for this iteration     100.00

 eigenvalues of (default mixing * dielectric matrix)
  average eigenvalue GAMMA=   1.1146
  1.6015  0.6278

 Free energy of the ion-electron system (eV)
  ---------------------------------------------------
  alpha Z        PSCENC =      1906.30059516
  Ewald energy   TEWEN  =    -22437.03717314
  -Hartree energ DENC   =     -3893.74101638
  -exchange      EXHF   =         0.00000000
  -V(xc)+E(xc)   XCENC  =       824.89347860
  PAW double counting   =     27636.06992351   -27364.89571894
  entropy T*S    EENTRO =        -0.00201152
  eigenvalues    EBANDS =     -3314.57326884
  atomic energy  EATOM  =     26451.57469743
  Solvation  Ediel_sol  =         0.00000000
  ---------------------------------------------------
  free energy    TOTEN  =      -191.41049412 eV

  energy without entropy =     -191.40848260  energy(sigma->0) =     -191.40948836


--------------------------------------------------------------------------------------------------------




--------------------------------------- Iteration      1(   8)  ---------------------------------------


    POTLOK:  cpu time      0.0045: real time      0.0046
    SETDIJ:  cpu time      0.0017: real time      0.0018
     EDDAV:  cpu time      3.7222: real time      3.7370
       DOS:  cpu time      0.0050: real time      0.0050
    CHARGE:  cpu time      0.0855: real time      0.0858
    MIXING:  cpu time      0.0003: real time      0.0003
    --------------------------------------------
      LOOP:  cpu time      3.8192: real time      3.8346

 eigenvalue-minimisations  : 20424
 total energy-change (2. order) : 0.1381087E+01  (-0.5896915E+00)
 number of electron     211.9999849 magnetization 
 augmentation part       50.9539893 magnetization 

 Broyden mixing:
  rms(total) = 0.36281E+00    rms(broyden)= 0.36241E+00
  rms(prec ) = 0.57876E+00
  weight for this iteration     100.00

 eigenvalues of (default mixing * dielectric matrix)
  average eigenvalue GAMMA=   1.1036
  1.6928  1.1707  0.4472

 Free energy of the ion-electron system (eV)
  ---------------------------------------------------
  alpha Z        PSCENC =      1906.30059516
  Ewald energy   TEWEN  =    -22437.03717314
  -Hartree energ DENC   =     -3859.35280271
  -exchange      EXHF   =         0.00000000
  -V(xc)+E(xc)   XCENC  =       823.41473519
  PAW double counting   =     28311.48765047   -28045.42656239
  entropy T*S    EENTRO =        -0.00206664
  eigenvalues    EBANDS =     -3340.98848087
  atomic energy  EATOM  =     26451.57469743
  Solvation  Ediel_sol  =         0.00000000
  ---------------------------------------------------
  free energy    TOTEN  =      -190.02940750 eV

  energy without entropy =     -190.02734086  energy(sigma->0) =     -190.02837418


--------------------------------------------------------------------------------------------------------




--------------------------------------- Iteration      1(   9)  ---------------------------------------


    POTLOK:  cpu time      0.0045: real time      0.0046
    SETDIJ:  cpu time      0.0017: real time      0.0017
     EDDAV:  cpu time      3.8540: real time      3.8695
       DOS:  cpu time      0.0049: real time      0.0050
    CHARGE:  cpu time      0.0840: real time      0.0843
    MIXING:  cpu time      0.0003: real time      0.0003
    --------------------------------------------
      LOOP:  cpu time      3.9494: real time      3.9654

 eigenvalue-minimisations  : 21600
 total energy-change (2. order) : 0.1544073E-01  (-0.1061417E+00)
 number of electron     211.9999850 magnetization 
 augmentation part       50.9941916 magnetization 

 Broyden mixing:
  rms(total) = 0.27854E+00    rms(broyden)= 0.27851E+00
  rms(prec ) = 0.38741E+00
  weight for this iteration     100.00

 eigenvalues of (default mixing * dielectric matrix)
  average eigenvalue GAMMA=   1.1603
  1.8923  1.7516  0.6023  0.3952

 Free energy of the ion-electron system (eV)
  ---------------------------------------------------
  alpha Z        PSCENC =      1906.30059516
  Ewald energy   TEWEN  =    -22437.03717314
  -Hartree energ DENC   =     -3854.93071767
  -exchange      EXHF   =         0.00000000
  -V(xc)+E(xc)   XCENC  =       823.22024149
  PAW double counting   =     28562.68141073   -28297.20290576
  entropy T*S    EENTRO =        -0.00170081
  eigenvalues    EBANDS =     -3344.61841419
  atomic energy  EATOM  =     26451.57469743
  Solvation  Ediel_sol  =         0.00000000
  ---------------------------------------------------
  free energy    TOTEN  =      -190.01396677 eV

  energy without entropy =     -190.01226596  energy(sigma->0) =     -190.01311636


--------------------------------------------------------------------------------------------------------




--------------------------------------- Iteration      1(  10)  ---------------------------------------


    POTLOK:  cpu time      0.0040: real time      0.0042
    SETDIJ:  cpu time      0.0017: real time      0.0017
     EDDAV:  cpu time      3.8164: real time      3.8315
       DOS:  cpu time      0.0048: real time      0.0048
    CHARGE:  cpu time      0.0807: real time      0.0809
    MIXING:  cpu time      0.0003: real time      0.0003
    --------------------------------------------
      LOOP:  cpu time      3.9078: real time      3.9233

 eigenvalue-minimisations  : 21384
 total energy-change (2. order) : 0.3070378E-01  (-0.2458965E-01)
 number of electron     211.9999850 magnetization 
 augmentation part       50.9589809 magnetization 

 Broyden mixing:
  rms(total) = 0.12225E+00    rms(broyden)= 0.12222E+00
  rms(prec ) = 0.18856E+00
  weight for this iteration     100.00

 eigenvalues of (default mixing * dielectric matrix)
  average eigenvalue GAMMA=   1.1854
  2.4386  1.7602  0.8693  0.4463  0.4126

 Free energy of the ion-electron system (eV)
  ---------------------------------------------------
  alpha Z        PSCENC =      1906.30059516
  Ewald energy   TEWEN  =    -22437.03717314
  -Hartree energ DENC   =     -3855.14410389
  -exchange      EXHF   =         0.00000000
  -V(xc)+E(xc)   XCENC  =       823.21229069
  PAW double counting   =     28741.49830139   -28475.75538276
  entropy T*S    EENTRO =        -0.00188548
  eigenvalues    EBANDS =     -3344.63060238
  atomic energy  EATOM  =     26451.57469743
  Solvation  Ediel_sol  =         0.00000000
  ---------------------------------------------------
  free energy    TOTEN  =      -189.98326299 eV

  energy without entropy =     -189.98137751  energy(sigma->0) =     -189.98232025


--------------------------------------------------------------------------------------------------------




--------------------------------------- Iteration      1(  11)  ---------------------------------------


    POTLOK:  cpu time      0.0040: real time      0.0042
    SETDIJ:  cpu time      0.0017: real time      0.0017
     EDDAV:  cpu time      3.8599: real time      3.8757
       DOS:  cpu time      0.0048: real time      0.0048
    CHARGE:  cpu time      0.0848: real time      0.0850
    MIXING:  cpu time      0.0003: real time      0.0003
    --------------------------------------------
      LOOP:  cpu time      3.9555: real time      3.9717

 eigenvalue-minimisations  : 21224
 total energy-change (2. order) : 0.1473471E-02  (-0.8283750E-02)
 number of electron     211.9999850 magnetization 
 augmentation part       50.9279365 magnetization 

 Broyden mixing:
  rms(total) = 0.46117E-01    rms(broyden)= 0.46059E-01
  rms(prec ) = 0.11832E+00
  weight for this iteration     100.00

 eigenvalues of (default mixing * dielectric matrix)
  average eigenvalue GAMMA=   1.0808
  2.4852  1.7428  0.9210  0.4789  0.4789  0.3781

 Free energy of the ion-electron system (eV)
  ---------------------------------------------------
  alpha Z        PSCENC =      1906.30059516
  Ewald energy   TEWEN  =    -22437.03717314
  -Hartree energ DENC   =     -3856.36129881
  -exchange      EXHF   =         0.00000000
  -V(xc)+E(xc)   XCENC  =       823.27095816
  PAW double counting   =     28808.29189877   -28542.07044016
  entropy T*S    EENTRO =        -0.00192563
  eigenvalues    EBANDS =     -3343.94910130
  atomic energy  EATOM  =     26451.57469743
  Solvation  Ediel_sol  =         0.00000000
  ---------------------------------------------------
  free energy    TOTEN  =      -189.98178952 eV

  energy without entropy =     -189.97986389  energy(sigma->0) =     -189.98082670


--------------------------------------------------------------------------------------------------------




--------------------------------------- Iteration      1(  12)  ---------------------------------------


    POTLOK:  cpu time      0.0044: real time      0.0046
    SETDIJ:  cpu time      0.0017: real time      0.0018
     EDDAV:  cpu time      3.6940: real time      3.7086
       DOS:  cpu time      0.0048: real time      0.0048
    CHARGE:  cpu time      0.0821: real time      0.0824
    MIXING:  cpu time      0.0003: real time      0.0003
    --------------------------------------------
      LOOP:  cpu time      3.7874: real time      3.8024

 eigenvalue-minimisations  : 20848
[...]
     33     -28.3589      2.00000
     34     -28.3071      2.00000
     35     -25.6598      2.00000
     36     -25.6146      2.00000
     37     -25.5072      2.00000
     38     -25.4881      2.00000
     39     -25.4800      2.00000
     40     -25.4636      2.00000
     41     -25.4495      2.00000
     42     -25.3541      2.00000
     43     -25.2974      2.00000
     44     -24.6673      2.00000
     45     -24.6317      2.00000
     46     -24.6158      2.00000
     47     -24.6009      2.00000
     48     -24.5910      2.00000
     49     -24.5759      2.00000
     50     -24.5583      2.00000
     51     -24.5461      2.00000
     52     -24.4946      2.00000
     53     -21.2451      2.00000
     54     -21.2406      2.00000
     55     -21.2284      2.00000
     56     -21.2268      2.00000
     57     -21.2217      2.00000
     58     -21.2062      2.00000
     59     -21.1857      2.00000
     60     -21.1711      2.00000
     61     -21.1399      2.00000
     62       3.5989      2.00000
     63       4.0564      2.00000
     64       4.3278      2.00000
     65       4.5647      2.00000
     66       4.7895      2.00000
     67       5.1731      2.00000
     68       5.4889      2.00000
     69       5.7928      2.00000
     70       6.2705      2.00000
     71       6.3305      2.00000
     72       6.4199      2.00000
     73       6.4714      2.00000
     74       6.5143      2.00000
     75       6.5794      2.00000
     76       6.6189      2.00000
     77       6.6415      2.00000
     78       6.6777      2.00000
     79       6.7766      2.00000
     80       6.8015      2.00000
     81       6.8366      2.00000
     82       7.1409      2.00000
     83       7.1664      2.00000
     84       7.2317      2.00000
     85       7.2636      2.00000
     86       7.3001      2.00000
     87       7.3627      2.00000
     88       7.3800      2.00000
     89       7.3925      2.00000
     90       7.4167      2.00000
     91       7.4507      2.00000
     92       7.4723      2.00000
     93       7.5206      2.00000
     94       7.5536      2.00000
     95       7.5770      2.00000
     96       7.6041      2.00000
     97       7.6407      2.00000
     98       7.6584      2.00000
     99       7.6795      2.00000
    100       7.7294      2.00000
    101       7.7662      2.00000
    102       7.8123      2.00000
    103       7.8934      2.00000
    104       7.9132      2.00000
    105       8.0159      2.00000
    106       8.0717      2.00000
    107       8.1110      2.00000
    108       8.1347      2.00000
    109       8.4292      2.00000
    110      11.2091      0.00000
    111      11.2358      0.00000
    112      11.2761      0.00000
    113      11.3213      0.00000
    114      11.4022      0.00000
    115      11.4777      0.00000
    116      11.5413      0.00000
    117      11.5813      0.00000
    118      11.6162      0.00000
    119      11.6479      0.00000
    120      11.6930      0.00000
    121      11.7793      0.00000
    122      11.8712      0.00000
    123      11.9315      0.00000
    124      11.9717      0.00000
    125      12.0750      0.00000
    126      12.1196      0.00000
    127      12.1957      0.00000
    128      12.2362      0.00000

 k-point    63 :       0.4000   -0.4000    0.4000
  band No.  band energies     occupation 
      1     -64.4652      2.00000
      2     -64.4440      2.00000
      3     -64.4258      2.00000
      4     -64.4055      2.00000
      5     -64.3971      2.00000
      6     -64.3810      2.00000
      7     -64.3579      2.00000
      8     -51.4065      2.00000
      9     -51.3896      2.00000
     10     -51.3437      2.00000
     11     -45.1462      2.00000
     12     -45.1275      2.00000
     13     -45.0860      2.00000
     14     -28.8945      2.00000
     15     -28.8630      2.00000
     16     -28.8526      2.00000
     17     -28.7912      2.00000
     18     -28.7879      2.00000
     19     -28.7395      2.00000
     20     -28.6886      2.00000
     21     -28.6577      2.00000
     22     -28.6344      2.00000
     23     -28.6203      2.00000
     24     -28.6061      2.00000
     25     -28.5939      2.00000
     26     -28.5840      2.00000
     27     -28.5649      2.00000
     28     -28.5433      2.00000
     29     -28.4663      2.00000
     30     -28.4497      2.00000
     31     -28.4329      2.00000
     32     -28.3894      2.00000
     33     -28.3594      2.00000
     34     -28.3348      2.00000
     35     -25.6596      2.00000
     36     -25.6131      2.00000
     37     -25.5070      2.00000
     38     -25.4874      2.00000
     39     -25.4789      2.00000
     40     -25.4651      2.00000
     41     -25.4503      2.00000
     42     -25.3548      2.00000
     43     -25.2999      2.00000
     44     -24.6643      2.00000
     45     -24.6314      2.00000
     46     -24.6106      2.00000
     47     -24.6000      2.00000
     48     -24.5871      2.00000
     49     -24.5766      2.00000
     50     -24.5625      2.00000
     51     -24.5471      2.00000
     52     -24.5000      2.00000
     53     -21.2443      2.00000
     54     -21.2407      2.00000
     55     -21.2316      2.00000
     56     -21.2240      2.00000
     57     -21.2168      2.00000
     58     -21.2103      2.00000
     59     -21.1861      2.00000
     60     -21.1722      2.00000
     61     -21.1392      2.00000
     62       3.5657      2.00000
     63       4.1589      2.00000
     64       4.3037      2.00000
     65       4.4889      2.00000
     66       4.9698      2.00000
     67       5.1175      2.00000
     68       5.2540      2.00000
     69       5.9223      2.00000
     70       6.2948      2.00000
     71       6.3265      2.00000
     72       6.4471      2.00000
     73       6.4620      2.00000
     74       6.4769      2.00000
     75       6.5539      2.00000
     76       6.6115      2.00000
     77       6.6478      2.00000
     78       6.7318      2.00000
     79       6.7417      2.00000
     80       6.7969      2.00000
     81       6.8528      2.00000
     82       7.1513      2.00000
     83       7.1738      2.00000
     84       7.1996      2.00000
     85       7.2924      2.00000
     86       7.3258      2.00000
     87       7.3699      2.00000
     88       7.3904      2.00000
     89       7.4006      2.00000
     90       7.4225      2.00000
     91       7.4364      2.00000
     92       7.4625      2.00000
     93       7.5056      2.00000
     94       7.5526      2.00000
     95       7.5641      2.00000
     96       7.6010      2.00000
     97       7.6411      2.00000
     98       7.6633      2.00000
     99       7.6857      2.00000
    100       7.7272      2.00000
    101       7.7663      2.00000
    102       7.8424      2.00000
    103       7.8978      2.00000
    104       7.9132      2.00000
    105       8.0035      2.00000
    106       8.0430      2.00000
    107       8.1023      2.00000
    108       8.1185      2.00000
    109       8.4343      2.00000
    110      11.1068      0.00000
    111      11.2428      0.00000
    112      11.3039      0.00000
    113      11.3250      0.00000
    114      11.4215      0.00000
    115      11.4915      0.00000
    116      11.5281      0.00000
    117      11.6038      0.00000
    118      11.6191      0.00000
    119      11.6812      0.00000
    120      11.7657      0.00000
    121      11.8092      0.00000
    122      11.8407      0.00000
    123      11.9242      0.00000
    124      12.0060      0.00000
    125      12.0382      0.00000
    126      12.0703      0.00000
    127      12.1767      0.00000
    128      12.3108      0.00000


--------------------------------------------------------------------------------------------------------


 soft charge-density along one line, spin component           1
         0         1         2         3         4         5         6         7         8         9
 total charge-density along one line
 
 pseudopotential strength for first ion, spin component:           1
  5.844 -20.481  -0.002  -0.001   0.001   0.004   0.002  -0.002
-20.481   9.377  -0.002  -0.001   0.001   0.000   0.000  -0.000
 -0.002  -0.002  -9.834   0.003   0.001   6.111  -0.003  -0.001
 -0.001  -0.001   0.003  -9.834   0.003  -0.003   6.110  -0.004
  0.001   0.001   0.001   0.003  -9.834  -0.001  -0.004   6.110
  0.004   0.000   6.111  -0.003  -0.001   7.869   0.002   0.001
  0.002   0.000  -0.003   6.110  -0.004   0.002   7.870   0.002
 -0.002  -0.000  -0.001  -0.004   6.110   0.001   0.002   7.870
  0.001   0.000   0.001   0.000  -0.002  -0.001  -0.000   0.002
  0.002   0.001  -0.001  -0.002   0.000   0.001   0.002  -0.000
  0.000   0.000   0.001  -0.001  -0.000  -0.001   0.001   0.000
  0.002   0.001   0.000   0.001  -0.001  -0.000  -0.001   0.001
  0.000   0.000   0.001  -0.000   0.001  -0.002   0.000  -0.001
  0.001   0.000   0.001   0.001  -0.002  -0.002  -0.001   0.003
  0.002   0.001  -0.001  -0.002   0.001   0.002   0.003  -0.001
  0.000   0.000   0.001  -0.001  -0.001  -0.001   0.001   0.001
  0.003   0.001   0.001   0.001  -0.001  -0.001  -0.002   0.002
  0.000   0.000   0.002  -0.000   0.001  -0.002   0.000  -0.001
 total augmentation occupancy for first ion, spin component:           1
  1.995  -0.049  -0.000   0.000  -0.000  -0.000   0.000  -0.000   0.004   0.010   0.000   0.006  -0.000  -0.003  -0.008  -0.000
 -0.049   1.265  -0.000   0.001  -0.001   0.002   0.001  -0.001   0.008   0.022  -0.002   0.023  -0.000  -0.001  -0.003   0.001
 -0.000  -0.000   1.996  -0.000  -0.000  -0.033   0.002   0.001  -0.003   0.003   0.002  -0.002   0.004   0.002  -0.002  -0.001
  0.000   0.001  -0.000   1.996  -0.000   0.002  -0.032   0.000  -0.003  -0.001  -0.002  -0.003   0.000   0.002   0.000   0.001
 -0.000  -0.001  -0.000  -0.000   1.996   0.001   0.000  -0.033  -0.001  -0.002  -0.000   0.003   0.001   0.000   0.002   0.000
 -0.000   0.002  -0.033   0.002   0.001   0.070  -0.002  -0.001   0.001  -0.001  -0.003  -0.003  -0.006  -0.001   0.001   0.002
  0.000   0.001   0.002  -0.032   0.000  -0.002   0.070  -0.000  -0.003   0.009   0.004   0.001  -0.000   0.001  -0.004  -0.002
 -0.000  -0.001   0.001   0.000  -0.033  -0.001  -0.000   0.070   0.008  -0.004   0.002  -0.001  -0.003  -0.004   0.002  -0.001
  0.004   0.008  -0.003  -0.003  -0.001   0.001  -0.003   0.008   3.399   0.078  -0.016   0.003   0.002  -1.438  -0.033   0.007
  0.010   0.022   0.003  -0.001  -0.002  -0.001   0.009  -0.004   0.078   3.414   0.036   0.010  -0.055  -0.033  -1.444  -0.015
  0.000  -0.002   0.002  -0.002  -0.000  -0.003   0.004   0.002  -0.016   0.036   2.551   0.019   0.000   0.007  -0.014  -1.164
  0.006   0.023  -0.002  -0.003   0.003  -0.003   0.001  -0.001   0.003   0.010   0.019   3.417   0.032   0.014   0.002  -0.009
 -0.000  -0.000   0.004   0.000   0.001  -0.006  -0.000  -0.003   0.002  -0.055   0.000   0.032   2.550  -0.000   0.023   0.000
 -0.003  -0.001   0.002   0.002   0.000  -0.001   0.001  -0.004  -1.438  -0.033   0.007   0.014  -0.000   0.621   0.015  -0.003
 -0.008  -0.003  -0.002   0.000   0.002   0.001  -0.004   0.002  -0.033  -1.444  -0.014   0.002   0.023   0.015   0.623   0.006
 -0.000   0.001  -0.001   0.001   0.000   0.002  -0.002  -0.001   0.007  -0.015  -1.164  -0.009   0.000  -0.003   0.006   0.539
 -0.005  -0.012   0.002   0.002  -0.002   0.001  -0.001   0.001   0.014   0.002  -0.009  -1.445  -0.015  -0.011  -0.003   0.004
  0.000   0.000  -0.003  -0.000  -0.000   0.003   0.000   0.001  -0.000   0.024   0.000  -0.016  -1.163  -0.000  -0.010  -0.000


------------------------ aborting loop because EDIFF is reached ----------------------------------------


    CHARGE:  cpu time      0.0878: real time      0.0881
    FORLOC:  cpu time      0.0005: real time      0.0005
    FORNL :  cpu time      0.8202: real time      0.8228
    STRESS:  cpu time      1.0147: real time      1.0181
    FORCOR:  cpu time      0.0046: real time      0.0046
    FORHAR:  cpu time      0.0014: real time      0.0014
    MIXING:  cpu time      0.0008: real time      0.0008
    OFIELD:  cpu time      0.0000: real time      0.0000

  FORCE on cell =-STRESS in cart. coord.  units (eV):
  Direction    XX          YY          ZZ          XY          YZ          ZX
  --------------------------------------------------------------------------------------
  Alpha Z  1906.30060  1906.30060  1906.30060
  Ewald   -7458.50356 -7487.49073 -7491.11413     3.16152     9.48457     9.48457
  Hartree  1304.55749  1276.98900  1274.34749     2.09056     8.82949     8.93304
  E(xc)    -979.54798  -979.50271  -979.50778     0.00742    -0.01969    -0.01322
  Local    1679.74899  1736.06091  1741.87814    -5.03090   -17.19390   -17.49470
  n-local  -268.64959  -271.06622  -268.80623    -0.21746    -0.91223    -1.10806
  augment   684.54906   684.69003   684.51264    -0.06771    -0.19942    -0.21373
  Kinetic  3101.27376  3103.89902  3102.24968    -0.01842     0.27716     0.83070
  Fock        0.00000     0.00000     0.00000     0.00000     0.00000     0.00000
  -------------------------------------------------------------------------------------
  Total     -30.27125   -30.12011   -30.13960    -0.07498     0.26599     0.41860
  in kB    -170.24064  -169.39065  -169.50029    -0.42169     1.49586     2.35413
  external pressure =     -169.71 kB  Pullay stress =        0.00 kB


 VOLUME and BASIS-vectors are now :
 -----------------------------------------------------------------------------
  energy-cutoff  :      250.00
  volume of cell :      284.89
      direct lattice vectors                 reciprocal lattice vectors
     6.580000000  0.000000000  0.000000000     0.151975684  0.000000000  0.000000000
     0.000000000  6.580000000  0.000000000     0.000000000  0.151975684  0.000000000
     0.000000000  0.000000000  6.580000000     0.000000000  0.000000000  0.151975684

  length of vectors
     6.580000000  6.580000000  6.580000000     0.151975684  0.151975684  0.151975684


 FORCES acting on ions
    electron-ion (+dipol)            ewald-force                    non-local-force                 convergence-correction
 -----------------------------------------------------------------------------------------------
   0.309E+02 -.308E+02 -.309E+02   -.306E+02 0.306E+02 0.306E+02   -.383E-01 -.579E-01 0.238E-01   0.235E-04 -.756E-04 0.354E-04
   -.309E+02 0.309E+02 0.309E+02   0.306E+02 -.306E+02 -.306E+02   0.398E-01 0.713E-01 -.227E-01   -.238E-04 0.575E-04 -.326E-04
   -.308E+02 -.308E+02 0.308E+02   0.306E+02 0.306E+02 -.306E+02   0.463E-01 -.644E-01 -.229E-01   -.898E-05 -.502E-04 -.332E-04
   -.112E+02 -.111E+02 0.111E+02   0.110E+02 0.110E+02 -.110E+02   0.486E-01 -.431E-01 0.160E-01   -.682E-04 0.152E-04 -.923E-05
   0.112E+02 -.111E+02 -.111E+02   -.110E+02 0.110E+02 0.110E+02   -.489E-01 -.560E-01 -.368E-01   0.521E-04 0.302E-04 0.125E-04
   -.331E+02 0.330E+02 -.331E+02   0.329E+02 -.329E+02 0.329E+02   0.170E-01 0.689E-01 -.142E-01   -.279E-04 0.524E-04 0.425E-04
   0.885E+01 0.886E+01 -.889E+01   -.863E+01 -.863E+01 0.863E+01   -.490E-01 0.319E-02 0.210E-01   0.365E-04 -.238E-04 0.847E-05
   -.884E+01 0.882E+01 -.887E+01   0.863E+01 -.863E+01 0.863E+01   0.117E-01 0.550E-01 -.150E-01   -.503E-04 -.798E-05 -.568E-06
   0.888E+01 -.889E+01 0.894E+01   -.863E+01 0.863E+01 -.863E+01   -.531E-01 -.233E-01 -.160E-01   0.640E-04 0.557E-05 0.865E-05
   0.332E+02 0.331E+02 -.331E+02   -.329E+02 -.329E+02 0.329E+02   0.238E-01 0.471E-01 -.435E-01   0.369E-04 0.723E-04 0.266E-04
   0.111E+02 0.110E+02 0.111E+02   -.110E+02 -.110E+02 -.110E+02   0.588E-01 0.905E-01 0.543E-01   0.537E-04 -.154E-04 -.153E-04
   0.331E+02 -.331E+02 0.331E+02   -.329E+02 0.329E+02 -.329E+02   0.320E-01 -.393E-01 0.679E-01   0.172E-04 -.598E-04 -.422E-04
   -.112E+02 -.111E+02 -.112E+02   0.110E+02 0.110E+02 0.110E+02   -.436E-01 -.587E-01 -.261E-01   -.728E-04 0.120E-04 -.157E-05
   0.331E+02 0.331E+02 0.331E+02   -.329E+02 -.329E+02 -.329E+02   0.207E-01 0.255E-01 0.289E-01   0.334E-04 0.635E-04 -.242E-04
   -.111E+02 0.111E+02 0.111E+02   0.110E+02 -.110E+02 -.110E+02   -.269E-01 0.482E-01 0.374E-01   -.638E-04 -.102E-04 -.128E-04
   -.331E+02 -.331E+02 -.331E+02   0.329E+02 0.329E+02 0.329E+02   -.332E-01 -.331E-01 -.541E-01   -.197E-04 -.699E-04 0.400E-04
 -----------------------------------------------------------------------------------------------
   -.549E-02 -.338E-01 0.192E-02   0.853E-13 -.639E-13 0.497E-13   0.551E-02 0.339E-01 -.192E-02   -.183E-04 -.432E-05 0.252E-05
 
 
 POSITION                                       TOTAL-FORCE (eV/Angst)
 -----------------------------------------------------------------------------------
      1.64500      4.93500      4.93500         0.229109     -0.313203     -0.236294
      4.93500      1.64500      1.64500        -0.227324      0.329234      0.249053
      4.93500      4.93500      1.64500        -0.205473     -0.277995      0.205469
      3.29000      3.29000      3.29000        -0.183770     -0.147775      0.158363
      0.00000      3.29000      0.00000         0.143611     -0.126880     -0.140156
      4.93500      1.64500      4.93500        -0.156260      0.152614     -0.167197
      0.00000      0.00000      0.00000         0.176681      0.235882     -0.237313
      3.29000      0.00000      0.00000        -0.200923      0.246671     -0.254743
      0.00000      3.29000      3.29000         0.200889     -0.284847      0.291340
      1.64500      1.64500      4.93500         0.230760      0.214704     -0.219099
      0.00000      0.00000      3.29000         0.186538      0.157220      0.179163
      1.64500      4.93500      1.64500         0.211473     -0.169960      0.199323
      3.29000      3.29000      0.00000        -0.217496     -0.196251     -0.203539
      1.64500      1.64500      1.64500         0.209179      0.195798      0.189704
      3.29000      0.00000      3.29000        -0.181471      0.166200      0.199684
      4.93500      4.93500      4.93500        -0.215523     -0.181410     -0.213757
 -----------------------------------------------------------------------------------
    total drift:                               -0.000001      0.000009     -0.000001


--------------------------------------------------------------------------------------------------------



  FREE ENERGIE OF THE ION-ELECTRON SYSTEM (eV)
  ---------------------------------------------------
  free  energy   TOTEN  =      -189.97654396 eV

  energy  without entropy=     -189.97470718  energy(sigma->0) =     -189.97562557
 


--------------------------------------------------------------------------------------------------------


    POTLOK:  cpu time      0.0064: real time      0.0512


--------------------------------------------------------------------------------------------------------


     LOOP+:  cpu time     93.6218: real time     94.2333
    4ORBIT:  cpu time      0.0000: real time      0.0000

 total amount of memory used by VASP MPI-rank0    48253. kBytes
=======================================================================

   base      :      30000. kBytes
   nonl-proj :       8332. kBytes
   fftplans  :        456. kBytes
   grid      :        919. kBytes
   one-center:         31. kBytes
   wavefun   :       8515. kBytes
 
  
  
 General timing and accounting informations for this job:
 ========================================================
  
                  Total CPU time used (sec):       96.913
                            User time (sec):       95.440
                          System time (sec):        1.473
                         Elapsed time (sec):       98.456
  
                   Maximum memory used (kb):       89652.
                   Average memory used (kb):          N/A
  
                          Minor page faults:        10437
                          Major page faults:            0
                 Voluntary context switches:          273
