 vasp.6.3.1 04May22 (build Jul 26 2022 04:02:40) complex                        
  
 executed on             LinuxIFC date 2023.12.01  04:38:38
 running on   48 total cores
 distrk:  each k-point on   48 cores,    1 groups
 distr:  one band on NCORE=  12 cores,    4 groups


--------------------------------------------------------------------------------------------------------


 INCAR:
   ISTART = 0
   NWRITE = 2
   PREC = Accurate
   ENCUT = 250
   GGA = PE
   NSW = 0
   ISIF = 2
   ISYM = 2
   NBLOCK = 1
   KBLOCK = 1
   IBRION = -1
   NELM = 80
   EDIFF = 1E-08
   EDIFFG = -0.01
   ALGO = Normal
   LDIAG = .TRUE.
   LREAL = .FALSE.
   ISMEAR = 0
   SIGMA = 0.02
   ICHARG = 2
   LPLANE = .TRUE.
   NPAR = 4
   LSCALU = .FALSE.
   NSIM = 4
   LWAVE = .FALSE.
   LCHARG = .FALSE.
   ICORELEVEL = 1

 POTCAR:    PAW_PBE Nb_sv 25May2007               
 POTCAR:    PAW_PBE Mo_sv 02Feb2006               
 POTCAR:    PAW_PBE Ta_pv 07Sep2000               
 POTCAR:    PAW_PBE W_sv 04Sep2015                
 POTCAR:    PAW_PBE Nb_sv 25May2007               
   SHA256 =  0e8fc07c9fcd1164cf2ade22d0399fd28f85e91cd773dfa6cf24839a48c95e24 Nb_sv/POTCAR          
   COPYR  = (c) Copyright 25May2007 Georg Kresse                                                    
   COPYR  = This file is part of the software VASP. Any use, copying, and all other rights are regul
   COPYR  = If you do not have a valid VASP license, you may not use, copy or distribute this file. 
   VRHFIN =Nb: 4p5s4d                                                                               
   LEXCH  = PE                                                                                      
   EATOM  =  1555.1913 eV,  114.3033 Ry                                                             
                                                                                                    
   TITEL  = PAW_PBE Nb_sv 25May2007                                                                 
   LULTRA =        F    use ultrasoft PP ?                                                          
   IUNSCR =        1    unscreen: 0-lin 1-nonlin 2-no                                               
   RPACOR =    1.800    partial core radius                                                         
   POMASS =   92.910; ZVAL   =   13.000    mass and valenz                                          
   RCORE  =    2.400    outmost cutoff radius                                                       
   RWIGS  =    2.400; RWIGS  =    1.270    wigner-seitz radius (au A)                               
   ENMAX  =  293.235; ENMIN  =  219.927 eV                                                          
   ICORE  =        3    local potential                                                             
   LCOR   =        T    correct aug charges                                                         
   LPAW   =        T    paw PP                                                                      
   EAUG   =  455.659                                                                                
   DEXC   =    0.000                                                                                
   RMAX   =    2.456    core radius for proj-oper                                                   
   RAUG   =    1.300    factor for augmentation sphere                                              
   RDEP   =    2.451    radius for radial grids                                                     
   RDEPT  =    1.956    core radius for aug-charge                                                  
                                                                                                    
   Atomic configuration                                                                             
   11 entries                                                                                       
     n  l   j            E        occ.                                                              
     1  0  0.50    -18805.2457   2.0000                                                             
     2  0  0.50     -2630.2869   2.0000                                                             
     2  1  1.50     -2348.4046   6.0000                                                             
     3  0  0.50      -438.8757   2.0000                                                             
     3  1  1.50      -346.7588   6.0000                                                             
     3  2  2.50      -196.2560  10.0000                                                             
     4  0  0.50       -58.3859   2.0000                                                             
     5  0  0.50        -3.9816   1.0000                                                             
     4  1  1.50       -34.5141   6.0000                                                             
     4  2  2.50        -3.0408   4.0000                                                             
     4  3  2.50        -1.3606   0.0000                                                             
   Description                                                                                      
     l       E           TYP  RCUT    TYP  RCUT                                                     
     0    -58.3859094     23  2.200                                                                 
     0     -3.9816262     23  2.200                                                                 
     1    -34.5140738     23  2.200                                                                 
     1     13.6058260     23  2.200                                                                 
     2     -3.0408010     23  2.200                                                                 
     2     -0.1283038     23  2.200                                                                 
     3     -1.3605826     23  2.400                                                                 
  local pseudopotential read in
  partial core-charges read in
  partial kinetic energy density read in
  atomic valenz-charges read in
  non local Contribution for L=           0  read in
    real space projection operators read in
  non local Contribution for L=           0  read in
    real space projection operators read in
  non local Contribution for L=           1  read in
    real space projection operators read in
  non local Contribution for L=           1  read in
    real space projection operators read in
  non local Contribution for L=           2  read in
    real space projection operators read in
  non local Contribution for L=           2  read in
    real space projection operators read in
    PAW grid and wavefunctions read in
 
   number of l-projection  operators is LMAX  =           6
   number of lm-projection operators is LMMAX =          18
 
 POTCAR:    PAW_PBE Mo_sv 02Feb2006               
   SHA256 =  2731df97e41766cc617548c5a8267718fdef1f509ac6bafa01e745abea2bdfaa Mo_sv/POTCAR          
   COPYR  = (c) Copyright 02Feb2006 Georg Kresse                                                    
   COPYR  = This file is part of the software VASP. Any use, copying, and all other rights are regul
   COPYR  = If you do not have a valid VASP license, you may not use, copy or distribute this file. 
   VRHFIN =Mo: 4p5s4d                                                                               
   LEXCH  = PE                                                                                      
   EATOM  =  1862.2866 eV,  136.8742 Ry                                                             
                                                                                                    
   TITEL  = PAW_PBE Mo_sv 02Feb2006                                                                 
   LULTRA =        F    use ultrasoft PP ?                                                          
   IUNSCR =        1    unscreen: 0-lin 1-nonlin 2-no                                               
   RPACOR =    2.200    partial core radius                                                         
   POMASS =   95.940; ZVAL   =   14.000    mass and valenz                                          
   RCORE  =    2.500    outmost cutoff radius                                                       
   RWIGS  =    2.750; RWIGS  =    1.455    wigner-seitz radius (au A)                               
   ENMAX  =  242.676; ENMIN  =  182.007 eV                                                          
   ICORE  =        3    local potential                                                             
   LCOR   =        T    correct aug charges                                                         
   LPAW   =        T    paw PP                                                                      
   EAUG   =  446.014                                                                                
   DEXC   =    0.000                                                                                
   RMAX   =    2.563    core radius for proj-oper                                                   
   RAUG   =    1.300    factor for augmentation sphere                                              
   RDEP   =    2.641    radius for radial grids                                                     
   RDEPT  =    2.031    core radius for aug-charge                                                  
                                                                                                    
   Atomic configuration                                                                             
   11 entries                                                                                       
     n  l   j            E        occ.                                                              
     1  0  0.50    -19819.0341   2.0000                                                             
     2  0  0.50     -2799.0127   2.0000                                                             
     2  1  1.50     -2502.0276   6.0000                                                             
     3  0  0.50      -476.4449   2.0000                                                             
     3  1  1.50      -379.1496   6.0000                                                             
     3  2  2.50      -220.9367  10.0000                                                             
     4  0  0.50       -64.3378   2.0000                                                             
     5  0  0.50        -4.0862   1.0000                                                             
     4  1  1.50       -38.4773   6.0000                                                             
     4  2  2.50        -3.7535   5.0000                                                             
     4  3  2.50        -1.3606   0.0000                                                             
   Description                                                                                      
     l       E           TYP  RCUT    TYP  RCUT                                                     
     0    -64.3377829     23  2.100                                                                 
     0     -4.0861640     23  2.400                                                                 
     1    -38.4772993     23  2.100                                                                 
     1     13.6058260     23  2.100                                                                 
     2     -3.7534941     23  2.400                                                                 
     2     -5.1140767     23  2.400                                                                 
     3     -4.0817478     23  2.500                                                                 
  local pseudopotential read in
  partial core-charges read in
  partial kinetic energy density read in
  atomic valenz-charges read in
  non local Contribution for L=           0  read in
    real space projection operators read in
  non local Contribution for L=           0  read in
    real space projection operators read in
  non local Contribution for L=           1  read in
    real space projection operators read in
  non local Contribution for L=           1  read in
    real space projection operators read in
  non local Contribution for L=           2  read in
    real space projection operators read in
  non local Contribution for L=           2  read in
    real space projection operators read in
    PAW grid and wavefunctions read in
 
   number of l-projection  operators is LMAX  =           6
   number of lm-projection operators is LMMAX =          18
 
 POTCAR:    PAW_PBE Ta_pv 07Sep2000               
   SHA256 =  00d0a14a36c127416459414afb8617d9754996fffa60a2465888e660b20a452f Ta_pv/POTCAR          
   COPYR  = (c) Copyright 07Sep2000 Georg Kresse                                                    
   COPYR  = This file is part of the software VASP. Any use, copying, and all other rights are regul
   COPYR  = If you do not have a valid VASP license, you may not use, copy or distribute this file. 
   VRHFIN =Ta:  5p6s5d                                                                              
   LEXCH  = PE                                                                                      
   EATOM  =  1047.1984 eV,   76.9669 Ry                                                             
                                                                                                    
   TITEL  = PAW_PBE Ta_pv 07Sep2000                                                                 
   LULTRA =        F    use ultrasoft PP ?                                                          
   IUNSCR =        1    unscreen: 0-lin 1-nonlin 2-no                                               
   RPACOR =    2.330    partial core radius                                                         
   POMASS =  180.948; ZVAL   =   11.000    mass and valenz                                          
   RCORE  =    2.500    outmost cutoff radius                                                       
   RWIGS  =    2.840; RWIGS  =    1.503    wigner-seitz radius (au A)                               
   ENMAX  =  223.667; ENMIN  =  167.750 eV                                                          
   RCLOC  =    2.205    cutoff for local pot                                                        
   LCOR   =        T    correct aug charges                                                         
   LPAW   =        T    paw PP                                                                      
   EAUG   =  377.421                                                                                
   DEXC   =    0.000                                                                                
   RMAX   =    2.551    core radius for proj-oper                                                   
   RAUG   =    1.300    factor for augmentation sphere                                              
   RDEP   =    2.526    radius for radial grids                                                     
   RDEPT  =    2.132    core radius for aug-charge                                                  
                                                                                                    
   Atomic configuration                                                                             
   15 entries                                                                                       
     n  l   j            E        occ.                                                              
     1  0  0.50    -67341.2801   2.0000                                                             
     2  0  0.50    -11566.9369   2.0000                                                             
     2  1  1.50    -10134.1175   6.0000                                                             
     3  0  0.50     -2648.5614   2.0000                                                             
     3  1  1.50     -2222.6006   6.0000                                                             
     3  2  2.50     -1726.3114  10.0000                                                             
     4  0  0.50      -538.6957   2.0000                                                             
     4  1  1.50      -399.0125   6.0000                                                             
     4  2  2.50      -220.3955  10.0000                                                             
     4  3  3.50       -23.0371  14.0000                                                             
     5  0  0.50       -71.2900   2.0000                                                             
     5  1  1.50       -37.8224   6.0000                                                             
     5  2  2.50        -2.6455   4.0000                                                             
     6  0  0.50        -4.9623   1.0000                                                             
     5  3  2.50        -1.3606   0.0000                                                             
   Description                                                                                      
     l       E           TYP  RCUT    TYP  RCUT                                                     
     1    -37.8224449     23  2.500                                                                 
     1      1.3605826     23  2.500                                                                 
     2     -2.6454718     23  2.500                                                                 
     2     -0.6258570     23  2.500                                                                 
     0     -4.9622674     23  2.500                                                                 
     0      4.7531427     23  2.500                                                                 
  local pseudopotential read in
  partial core-charges read in
  partial kinetic energy density read in
  atomic valenz-charges read in
  non local Contribution for L=           1  read in
    real space projection operators read in
  non local Contribution for L=           1  read in
    real space projection operators read in
  non local Contribution for L=           2  read in
    real space projection operators read in
  non local Contribution for L=           2  read in
    real space projection operators read in
  non local Contribution for L=           0  read in
    real space projection operators read in
  non local Contribution for L=           0  read in
    real space projection operators read in
    PAW grid and wavefunctions read in
 
   number of l-projection  operators is LMAX  =           6
   number of lm-projection operators is LMMAX =          18
 
 POTCAR:    PAW_PBE W_sv 04Sep2015                
   SHA256 =  931c2d770f65867ef30f3db3421922900fc0890ebac5c3e12f63b6a2064023d7 W_sv/POTCAR           
   COPYR  = (c) Copyright 04Sep2015 Georg Kresse                                                    
   COPYR  = This file is part of the software VASP. Any use, copying, and all other rights are regul
   COPYR  = If you do not have a valid VASP license, you may not use, copy or distribute this file. 
   VRHFIN =W : 5p6s5d                                                                               
   LEXCH  = PE                                                                                      
   EATOM  =  1865.5791 eV,  137.1162 Ry                                                             
                                                                                                    
   TITEL  = PAW_PBE W_sv 04Sep2015                                                                  
   LULTRA =        F    use ultrasoft PP ?                                                          
   IUNSCR =        1    unscreen: 0-lin 1-nonlin 2-no                                               
   RPACOR =    2.330    partial core radius                                                         
   POMASS =  183.850; ZVAL   =   14.000    mass and valenz                                          
   RCORE  =    2.500    outmost cutoff radius                                                       
   RWIGS  =    2.750; RWIGS  =    1.455    wigner-seitz radius (au A)                               
   ENMAX  =  223.057; ENMIN  =  167.293 eV                                                          
   ICORE  =        3    local potential                                                             
   LCOR   =        T    correct aug charges                                                         
   LPAW   =        T    paw PP                                                                      
   EAUG   =  373.438                                                                                
   DEXC   =    0.000                                                                                
   RMAX   =    2.565    core radius for proj-oper                                                   
   RAUG   =    1.300    factor for augmentation sphere                                              
   RDEP   =    2.539    radius for radial grids                                                     
   RDEPT  =    2.126    core radius for aug-charge                                                  
                                                                                                    
   Atomic configuration                                                                             
   15 entries                                                                                       
     n  l   j            E        occ.                                                              
     1  0  0.50    -69465.5834   2.0000                                                             
     2  0  0.50    -11986.2640   2.0000                                                             
     2  1  1.50    -10479.8613   6.0000                                                             
     3  0  0.50     -2759.0756   2.0000                                                             
     3  1  1.50     -2313.1855   6.0000                                                             
     3  2  2.50     -1801.1183  10.0000                                                             
     4  0  0.50      -567.6789   2.0000                                                             
     4  1  1.50      -421.4692   6.0000                                                             
     4  2  2.50      -236.3471  10.0000                                                             
     4  3  3.50       -31.2665  14.0000                                                             
     5  0  0.50       -77.1084   2.0000                                                             
     6  0  0.50        -5.1438   1.0000                                                             
     5  1  1.50       -41.3856   6.0000                                                             
     5  2  2.50        -3.3185   5.0000                                                             
     5  3  2.50        -1.3606   0.0000                                                             
   Description                                                                                      
     l       E           TYP  RCUT    TYP  RCUT                                                     
     0    -77.1084470     23  2.100                                                                 
     0     -5.1437956     23  2.300                                                                 
     1    -41.3855615     23  2.500                                                                 
     1     -2.7211652     23  2.500                                                                 
     2     -3.3185025     23  2.500                                                                 
     2     -1.5965151     23  2.500                                                                 
     3     -1.3605826     23  2.500                                                                 
  local pseudopotential read in
  partial core-charges read in
  partial kinetic energy density read in
  kinetic energy density of atom read in
  atomic valenz-charges read in
  non local Contribution for L=           0  read in
    real space projection operators read in
  non local Contribution for L=           0  read in
    real space projection operators read in
  non local Contribution for L=           1  read in
    real space projection operators read in
  non local Contribution for L=           1  read in
    real space projection operators read in
  non local Contribution for L=           2  read in
    real space projection operators read in
  non local Contribution for L=           2  read in
    real space projection operators read in
    PAW grid and wavefunctions read in
 
   number of l-projection  operators is LMAX  =           6
   number of lm-projection operators is LMMAX =          18
 
 -----------------------------------------------------------------------------
|                                                                             |
|               ----> ADVICE to this user running VASP <----                  |
|                                                                             |
|     You have a (more or less) 'large supercell' and for larger cells it     |
|     might be more efficient to use real-space projection operators.         |
|     Therefore, try LREAL= Auto in the INCAR file.                           |
|     Mind: For very accurate calculation, you might also keep the            |
|     reciprocal projection scheme (i.e. LREAL=.FALSE.).                      |
|                                                                             |
 -----------------------------------------------------------------------------

  PAW_PBE Nb_sv 25May2007               :
 energy of atom  1       EATOM=-1555.1913
 kinetic energy error for atom=    0.2155 (will be added to EATOM!!)
  PAW_PBE Mo_sv 02Feb2006               :
 energy of atom  2       EATOM=-1862.2866
 kinetic energy error for atom=    0.1102 (will be added to EATOM!!)
  PAW_PBE Ta_pv 07Sep2000               :
 energy of atom  3       EATOM=-1047.1984
 kinetic energy error for atom=    0.0394 (will be added to EATOM!!)
  PAW_PBE W_sv 04Sep2015                :
 energy of atom  4       EATOM=-1865.5791
 kinetic energy error for atom=    0.0589 (will be added to EATOM!!)
 
 
 POSCAR: Nb-Mo-Ta-W alloy
  positions in direct lattice
  No initial velocities read in
 exchange correlation table for  LEXCH =        8
   RHO(1)=    0.500       N(1)  =     2000
   RHO(2)=  100.500       N(2)  =     4000
 


--------------------------------------------------------------------------------------------------------


 ion  position               nearest neighbor table
   1  0.125  0.625  0.250-   4 2.85   5 2.85   9 2.85  17 2.85  23 2.85  24 2.85  42 2.85  54 2.85
                            34 3.29  34 3.29
   2  0.000  0.000  0.500-   6 2.85  13 2.85  33 2.85  39 2.85  43 2.85  50 2.85  55 2.85  61 2.85
                            37 3.29  40 3.29
   3  0.875  0.625  0.250-   4 2.85   9 2.85  24 2.85  26 2.85  27 2.85  38 2.85  45 2.85  54 2.85

   4  0.000  0.750  0.000-   1 2.85   3 2.85  13 2.85  34 2.85  50 2.85  55 2.85  57 2.85  61 2.85
                            42 3.29
   5  0.250  0.500  0.500-   1 2.85   8 2.85  22 2.85  28 2.85  34 2.85  47 2.85  62 2.85  63 2.85
                            31 3.29
   6  0.875  0.125  0.250-   2 2.85   7 2.85  14 2.85  35 2.85  36 2.85  37 2.85  41 2.85  51 2.85
                            33 3.29  43 3.29  32 3.29  43 3.29
   7  0.000  0.250  0.000-   6 2.85   8 2.85  33 2.85  39 2.85  43 2.85  47 2.85  52 2.85  59 2.85
                            35 3.29
   8  0.125  0.375  0.750-   5 2.85   7 2.85  14 2.85  17 2.85  21 2.85  24 2.85  31 2.85  54 2.85
                            39 3.29  34 3.29
   9  0.000  0.750  0.500-   1 2.85   3 2.85  13 2.85  34 2.85  50 2.85  55 2.85  57 2.85  61 2.85
                            45 3.29
  10  0.500  0.750  0.000-  16 2.85  28 2.85  30 2.85  48 2.85  53 2.85  56 2.85  63 2.85  64 2.85
                            44 3.29  42 3.29
  11  0.500  0.500  0.500-  12 2.85  22 2.85  28 2.85  48 2.85  58 2.85  62 2.85  63 2.85  64 2.85

  12  0.625  0.375  0.750-  11 2.85  18 2.85  19 2.85  26 2.85  29 2.85  35 2.85  36 2.85  38 2.85

  13  0.875  0.875  0.250-   2 2.85   4 2.85   9 2.85  27 2.85  37 2.85  41 2.85  45 2.85  51 2.85

  14  0.000  0.250  0.500-   6 2.85   8 2.85  33 2.85  39 2.85  43 2.85  47 2.85  52 2.85  59 2.85
                            36 3.29  31 3.29
  15  0.375  0.125  0.750-  19 2.85  21 2.85  29 2.85  31 2.85  40 2.85  44 2.85  46 2.85  49 2.85
                            39 3.29
  16  0.375  0.875  0.250-  10 2.85  23 2.85  40 2.85  42 2.85  44 2.85  46 2.85  49 2.85  60 2.85
                            20 3.29  53 3.29  56 3.29  28 3.29  61 3.29  53 3.29
  17  0.250  0.500  0.000-   1 2.85   8 2.85  22 2.85  28 2.85  34 2.85  47 2.85  62 2.85  63 2.85
                            21 3.29  54 3.29  18 3.29  42 3.29
  18  0.500  0.500  0.000-  12 2.85  22 2.85  28 2.85  48 2.85  58 2.85  62 2.85  63 2.85  64 2.85
                            38 3.29  17 3.29  29 3.29
  19  0.500  0.250  0.500-  12 2.85  15 2.85  20 2.85  22 2.85  25 2.85  32 2.85  58 2.85  62 2.85
                            36 3.29  49 3.29  31 3.29  29 3.29  29 3.29
  20  0.375  0.125  0.250-  19 2.85  21 2.85  29 2.85  31 2.85  40 2.85  44 2.85  46 2.85  49 2.85
                            32 3.29  33 3.29  16 3.29  62 3.29
  21  0.250  0.250  0.000-   8 2.85  15 2.85  20 2.85  22 2.85  33 2.85  39 2.85  47 2.85  62 2.85
                            29 3.29  46 3.29  31 3.29  17 3.29  31 3.29
  22  0.375  0.375  0.750-   5 2.85  11 2.85  17 2.85  18 2.85  19 2.85  21 2.85  29 2.85  31 2.85
                            62 3.29  63 3.29  62 3.29
  23  0.250  0.750  0.500-   1 2.85  16 2.85  28 2.85  34 2.85  50 2.85  53 2.85  61 2.85  63 2.85
                            60 3.29  40 3.29  42 3.29  42 3.29
  24  0.000  0.500  0.500-   1 2.85   3 2.85   8 2.85  34 2.85  47 2.85  52 2.85  57 2.85  59 2.85
                            26 3.29  54 3.29  54 3.29
  25  0.625  0.125  0.750-  19 2.85  29 2.85  35 2.85  36 2.85  37 2.85  41 2.85  44 2.85  49 2.85
                            43 3.29  30 3.29  32 3.29  32 3.29
  26  0.750  0.500  0.500-   3 2.85  12 2.85  48 2.85  52 2.85  57 2.85  58 2.85  59 2.85  64 2.85
                            38 3.29  45 3.29  24 3.29  36 3.29  38 3.29
  27  0.750  0.750  0.000-   3 2.85  13 2.85  30 2.85  48 2.85  55 2.85  56 2.85  57 2.85  64 2.85
                            45 3.29  38 3.29  41 3.29  45 3.29
  28  0.375  0.625  0.250-   5 2.85  10 2.85  11 2.85  17 2.85  18 2.85  23 2.85  42 2.85  60 2.85
                            16 3.29  62 3.29  63 3.29  64 3.29  63 3.29
  29  0.500  0.250  0.000-  12 2.85  15 2.85  20 2.85  22 2.85  25 2.85  32 2.85  58 2.85  62 2.85
                            21 3.29  35 3.29  44 3.29  19 3.29  18 3.29  19 3.29
  30  0.625  0.875  0.750-  10 2.85  27 2.85  37 2.85  41 2.85  44 2.85  45 2.85  49 2.85  60 2.85
                            25 3.29  53 3.29  55 3.29  56 3.29  48 3.29  56 3.29
  31  0.250  0.250  0.500-   8 2.85  15 2.85  20 2.85  22 2.85  33 2.85  39 2.85  47 2.85  62 2.85
                            19 3.29  14 3.29  40 3.29  21 3.29   5 3.29  21 3.29
  32  0.625  0.125  0.250-  19 2.85  29 2.85  35 2.85  36 2.85  37 2.85  41 2.85  44 2.85  49 2.85
                            20 3.29  25 3.29   6 3.29  56 3.29  58 3.29  25 3.29
  33  0.125  0.125  0.250-   2 2.85   7 2.85  14 2.85  21 2.85  31 2.85  40 2.85  46 2.85  51 2.85
                             6 3.29  20 3.29  47 3.29  39 3.29  61 3.29  39 3.29
  34  0.125  0.625  0.750-   4 2.85   5 2.85   9 2.85  17 2.85  23 2.85  24 2.85  42 2.85  54 2.85
                             1 3.29  50 3.29   8 3.29  57 3.29  63 3.29   1 3.29
  35  0.750  0.250  0.000-   6 2.85  12 2.85  25 2.85  32 2.85  43 2.85  52 2.85  58 2.85  59 2.85
                            41 3.29  29 3.29   7 3.29  36 3.29  38 3.29  36 3.29
  36  0.750  0.250  0.500-   6 2.85  12 2.85  25 2.85  32 2.85  43 2.85  52 2.85  58 2.85  59 2.85
                            37 3.29  14 3.29  26 3.29  19 3.29  35 3.29  35 3.29
  37  0.750  0.000  0.500-   6 2.85  13 2.85  25 2.85  30 2.85  32 2.85  43 2.85  55 2.85  56 2.85
                             2 3.29  45 3.29  49 3.29  36 3.29  41 3.29  41 3.29
  38  0.750  0.500  0.000-   3 2.85  12 2.85  48 2.85  52 2.85  57 2.85  58 2.85  59 2.85  64 2.85
                            54 3.29  27 3.29  35 3.29  18 3.29  26 3.29  26 3.29
  39  0.125  0.125  0.750-   2 2.85   7 2.85  14 2.85  21 2.85  31 2.85  40 2.85  46 2.85  51 2.85
                             8 3.29  43 3.29  15 3.29  50 3.29  33 3.29  33 3.29
  40  0.250  0.000  0.500-  15 2.85  16 2.85  20 2.85  33 2.85  39 2.85  50 2.85  53 2.85  61 2.85
                            46 3.29  49 3.29  31 3.29   2 3.29  23 3.29  46 3.29
  41  0.750  0.000  0.000-   6 2.85  13 2.85  25 2.85  30 2.85  32 2.85  43 2.85  55 2.85  56 2.85
                            27 3.29  44 3.29  51 3.29  35 3.29  37 3.29  37 3.29
  42  0.250  0.750  0.000-   1 2.85  16 2.85  28 2.85  34 2.85  50 2.85  53 2.85  61 2.85  63 2.85
                            46 3.29  17 3.29  23 3.29  10 3.29   4 3.29  23 3.29
  43  0.875  0.125  0.750-   2 2.85   7 2.85  14 2.85  35 2.85  36 2.85  37 2.85  41 2.85  51 2.85
                            39 3.29  25 3.29   6 3.29  55 3.29  59 3.29   6 3.29
  44  0.500  0.000  0.000-  15 2.85  16 2.85  20 2.85  25 2.85  30 2.85  32 2.85  53 2.85  56 2.85
                            41 3.29  46 3.29  49 3.29  10 3.29  29 3.29  49 3.29
  45  0.750  0.750  0.500-   3 2.85  13 2.85  30 2.85  48 2.85  55 2.85  56 2.85  57 2.85  64 2.85
                            27 3.29   9 3.29  37 3.29  60 3.29  26 3.29  27 3.29
  46  0.250  0.000  0.000-  15 2.85  16 2.85  20 2.85  33 2.85  39 2.85  50 2.85  53 2.85  61 2.85
                            44 3.29  21 3.29  51 3.29  40 3.29  42 3.29  40 3.29
  47  0.125  0.375  0.250-   5 2.85   7 2.85  14 2.85  17 2.85  21 2.85  24 2.85  31 2.85  54 2.85
                            52 3.29  33 3.29  62 3.29
  48  0.625  0.625  0.750-  10 2.85  11 2.85  18 2.85  26 2.85  27 2.85  38 2.85  45 2.85  60 2.85
                            57 3.29  30 3.29  63 3.29  64 3.29  64 3.29
  49  0.500  0.000  0.500-  15 2.85  16 2.85  20 2.85  25 2.85  30 2.85  32 2.85  53 2.85  56 2.85
                            40 3.29  44 3.29  19 3.29  37 3.29  60 3.29  44 3.29
  50  0.125  0.875  0.750-   2 2.85   4 2.85   9 2.85  23 2.85  40 2.85  42 2.85  46 2.85  51 2.85
                            34 3.29  39 3.29  53 3.29  55 3.29  61 3.29  61 3.29
  51  0.000  0.000  0.000-   6 2.85  13 2.85  33 2.85  39 2.85  43 2.85  50 2.85  55 2.85  61 2.85
                            46 3.29  41 3.29
  52  0.875  0.375  0.250-   7 2.85  14 2.85  24 2.85  26 2.85  35 2.85  36 2.85  38 2.85  54 2.85
                            47 3.29  58 3.29  59 3.29  59 3.29
  53  0.375  0.875  0.750-  10 2.85  23 2.85  40 2.85  42 2.85  44 2.85  46 2.85  49 2.85  60 2.85
                            16 3.29  50 3.29  30 3.29  63 3.29  16 3.29
  54  0.000  0.500  0.000-   1 2.85   3 2.85   8 2.85  34 2.85  47 2.85  52 2.85  57 2.85  59 2.85
                            17 3.29  38 3.29  24 3.29  24 3.29
  55  0.875  0.875  0.750-   2 2.85   4 2.85   9 2.85  27 2.85  37 2.85  41 2.85  45 2.85  51 2.85
                            30 3.29  50 3.29  43 3.29  57 3.29
  56  0.625  0.875  0.250-  10 2.85  27 2.85  37 2.85  41 2.85  44 2.85  45 2.85  49 2.85  60 2.85
                            16 3.29  30 3.29  32 3.29  64 3.29  30 3.29
  57  0.875  0.625  0.750-   4 2.85   9 2.85  24 2.85  26 2.85  27 2.85  38 2.85  45 2.85  54 2.85
                            48 3.29  34 3.29  55 3.29  59 3.29
  58  0.625  0.375  0.250-  11 2.85  18 2.85  19 2.85  26 2.85  29 2.85  35 2.85  36 2.85  38 2.85
                            32 3.29  52 3.29  62 3.29  64 3.29
  59  0.875  0.375  0.750-   7 2.85  14 2.85  24 2.85  26 2.85  35 2.85  36 2.85  38 2.85  54 2.85
                            52 3.29  43 3.29  57 3.29  52 3.29
  60  0.500  0.750  0.500-  16 2.85  28 2.85  30 2.85  48 2.85  53 2.85  56 2.85  63 2.85  64 2.85
                            23 3.29  49 3.29  45 3.29
  61  0.125  0.875  0.250-   2 2.85   4 2.85   9 2.85  23 2.85  40 2.85  42 2.85  46 2.85  51 2.85
                            16 3.29  50 3.29  33 3.29  50 3.29
  62  0.375  0.375  0.250-   5 2.85  11 2.85  17 2.85  18 2.85  19 2.85  21 2.85  29 2.85  31 2.85
                            28 3.29  20 3.29  22 3.29  47 3.29  58 3.29  22 3.29
  63  0.375  0.625  0.750-   5 2.85  10 2.85  11 2.85  17 2.85  18 2.85  23 2.85  42 2.85  60 2.85
                            34 3.29  22 3.29  48 3.29  53 3.29  28 3.29  28 3.29
  64  0.625  0.625  0.250-  10 2.85  11 2.85  18 2.85  26 2.85  27 2.85  38 2.85  45 2.85  60 2.85
                            48 3.29  56 3.29  58 3.29  28 3.29  48 3.29
 
  LATTYP: Found a simple tetragonal cell.
 ALAT       =    13.1600000000
 C/A-ratio  =     0.5000000000
  
  Lattice vectors:
  
 A1 = (  13.1600000000,   0.0000000000,   0.0000000000)
 A2 = (   0.0000000000,  13.1600000000,   0.0000000000)
 A3 = (   0.0000000000,   0.0000000000,   6.5800000000)


Analysis of symmetry for initial positions (statically):
=====================================================================
 Subroutine PRICEL returns:
 Original cell was already a primitive cell.
 

 Routine SETGRP: Setting up the symmetry group for a 
 simple tetragonal supercell.


 Subroutine GETGRP returns: Found  1 space group operations
 (whereof  1 operations were pure point group operations)
 out of a pool of 16 trial point group operations.


The static configuration has the point symmetry C_1 .


Analysis of symmetry for dynamics (positions and initial velocities):
=====================================================================
 Subroutine PRICEL returns:
 Original cell was already a primitive cell.
 

 Routine SETGRP: Setting up the symmetry group for a 
 simple tetragonal supercell.


 Subroutine GETGRP returns: Found  1 space group operations
 (whereof  1 operations were pure point group operations)
 out of a pool of 16 trial point group operations.


The dynamic configuration has the point symmetry C_1 .


 Subroutine INISYM returns: Found  1 space group operations
 (whereof  1 operations are pure point group operations),
 and found     1 'primitive' translations


----------------------------------------------------------------------------------------

                                     Primitive cell                                     

  volume of cell :    1139.5612

  direct lattice vectors                    reciprocal lattice vectors
    13.160000000  0.000000000  0.000000000     0.075987842  0.000000000  0.000000000
     0.000000000 13.160000000  0.000000000     0.000000000  0.075987842  0.000000000
     0.000000000  0.000000000  6.580000000     0.000000000  0.000000000  0.151975684

  length of vectors
    13.160000000 13.160000000  6.580000000     0.075987842  0.075987842  0.151975684

  position of ions in fractional coordinates (direct lattice)
     0.125000000  0.625000000  0.250000000
     0.000000000  0.000000000  0.500000000
     0.875000000  0.625000000  0.250000000
     0.000000000  0.750000000  0.000000000
     0.250000000  0.500000000  0.500000000
     0.875000000  0.125000000  0.250000000
     0.000000000  0.250000000  0.000000000
     0.125000000  0.375000000  0.750000000
     0.000000000  0.750000000  0.500000000
     0.500000000  0.750000000  0.000000000
     0.500000000  0.500000000  0.500000000
     0.625000000  0.375000000  0.750000000
     0.875000000  0.875000000  0.250000000
     0.000000000  0.250000000  0.500000000
     0.375000000  0.125000000  0.750000000
     0.375000000  0.875000000  0.250000000
     0.250000000  0.500000000  0.000000000
     0.500000000  0.500000000  0.000000000
     0.500000000  0.250000000  0.500000000
     0.375000000  0.125000000  0.250000000
     0.250000000  0.250000000  0.000000000
     0.375000000  0.375000000  0.750000000
     0.250000000  0.750000000  0.500000000
     0.000000000  0.500000000  0.500000000
     0.625000000  0.125000000  0.750000000
     0.750000000  0.500000000  0.500000000
     0.750000000  0.750000000  0.000000000
     0.375000000  0.625000000  0.250000000
     0.500000000  0.250000000  0.000000000
     0.625000000  0.875000000  0.750000000
     0.250000000  0.250000000  0.500000000
     0.625000000  0.125000000  0.250000000
     0.125000000  0.125000000  0.250000000
     0.125000000  0.625000000  0.750000000
     0.750000000  0.250000000  0.000000000
     0.750000000  0.250000000  0.500000000
     0.750000000  0.000000000  0.500000000
     0.750000000  0.500000000  0.000000000
     0.125000000  0.125000000  0.750000000
     0.250000000  0.000000000  0.500000000
     0.750000000  0.000000000  0.000000000
     0.250000000  0.750000000  0.000000000
     0.875000000  0.125000000  0.750000000
     0.500000000  0.000000000  0.000000000
     0.750000000  0.750000000  0.500000000
     0.250000000  0.000000000  0.000000000
     0.125000000  0.375000000  0.250000000
     0.625000000  0.625000000  0.750000000
     0.500000000  0.000000000  0.500000000
     0.125000000  0.875000000  0.750000000
     0.000000000  0.000000000  0.000000000
     0.875000000  0.375000000  0.250000000
     0.375000000  0.875000000  0.750000000
     0.000000000  0.500000000  0.000000000
     0.875000000  0.875000000  0.750000000
     0.625000000  0.875000000  0.250000000
     0.875000000  0.625000000  0.750000000
     0.625000000  0.375000000  0.250000000
     0.875000000  0.375000000  0.750000000
     0.500000000  0.750000000  0.500000000
     0.125000000  0.875000000  0.250000000
     0.375000000  0.375000000  0.250000000
     0.375000000  0.625000000  0.750000000
     0.625000000  0.625000000  0.250000000

  ion indices of the primitive-cell ions
   primitive index   ion index
                 1           1
                 2           2
                 3           3
                 4           4
                 5           5
                 6           6
                 7           7
                 8           8
                 9           9
                10          10
                11          11
                12          12
                13          13
                14          14
                15          15
                16          16
                17          17
                18          18
                19          19
                20          20
                21          21
                22          22
                23          23
                24          24
                25          25
                26          26
                27          27
                28          28
                29          29
                30          30
                31          31
                32          32
                33          33
                34          34
                35          35
                36          36
                37          37
                38          38
                39          39
                40          40
                41          41
                42          42
                43          43
                44          44
                45          45
                46          46
                47          47
                48          48
                49          49
                50          50
                51          51
                52          52
                53          53
                54          54
                55          55
                56          56
                57          57
                58          58
                59          59
                60          60
                61          61
                62          62
                63          63
                64          64

----------------------------------------------------------------------------------------

 
 
 KPOINTS: K-Spacing Value to Generate K-Mesh: 0.03

Automatic generation of k-mesh.
 Grid dimensions read from file:
 generate k-points for:    3    3    5

 Generating k-lattice:

  Cartesian coordinates                     Fractional coordinates (reciprocal lattice)
     0.025329281  0.000000000  0.000000000     0.333333333  0.000000000  0.000000000
     0.000000000  0.025329281  0.000000000     0.000000000  0.333333333  0.000000000
     0.000000000  0.000000000  0.030395137     0.000000000  0.000000000  0.200000000

  Length of vectors
     0.025329281  0.025329281  0.030395137

  Shift w.r.t. Gamma in fractional coordinates (k-lattice)
     0.000000000  0.000000000  0.000000000

 
 Subroutine IBZKPT returns following result:
 ===========================================
 
 Found     23 irreducible k-points:
 
 Following reciprocal coordinates:
            Coordinates               Weight
  0.000000  0.000000  0.000000      1.000000
  0.333333  0.000000  0.000000      2.000000
  0.000000  0.333333  0.000000      2.000000
  0.333333  0.333333  0.000000      2.000000
 -0.333333  0.333333  0.000000      2.000000
  0.000000  0.000000  0.200000      2.000000
  0.333333  0.000000  0.200000      2.000000
  0.000000  0.333333  0.200000      2.000000
 -0.333333  0.000000  0.200000      2.000000
  0.000000 -0.333333  0.200000      2.000000
  0.333333  0.333333  0.200000      2.000000
 -0.333333  0.333333  0.200000      2.000000
 -0.333333 -0.333333  0.200000      2.000000
  0.333333 -0.333333  0.200000      2.000000
  0.000000  0.000000  0.400000      2.000000
  0.333333  0.000000  0.400000      2.000000
  0.000000  0.333333  0.400000      2.000000
 -0.333333  0.000000  0.400000      2.000000
  0.000000 -0.333333  0.400000      2.000000
  0.333333  0.333333  0.400000      2.000000
 -0.333333  0.333333  0.400000      2.000000
 -0.333333 -0.333333  0.400000      2.000000
  0.333333 -0.333333  0.400000      2.000000
 
 Following cartesian coordinates:
            Coordinates               Weight
  0.000000  0.000000  0.000000      1.000000
  0.025329  0.000000  0.000000      2.000000
  0.000000  0.025329  0.000000      2.000000
  0.025329  0.025329  0.000000      2.000000
 -0.025329  0.025329  0.000000      2.000000
  0.000000  0.000000  0.030395      2.000000
  0.025329  0.000000  0.030395      2.000000
  0.000000  0.025329  0.030395      2.000000
 -0.025329  0.000000  0.030395      2.000000
  0.000000 -0.025329  0.030395      2.000000
  0.025329  0.025329  0.030395      2.000000
 -0.025329  0.025329  0.030395      2.000000
 -0.025329 -0.025329  0.030395      2.000000
  0.025329 -0.025329  0.030395      2.000000
  0.000000  0.000000  0.060790      2.000000
  0.025329  0.000000  0.060790      2.000000
  0.000000  0.025329  0.060790      2.000000
 -0.025329  0.000000  0.060790      2.000000
  0.000000 -0.025329  0.060790      2.000000
  0.025329  0.025329  0.060790      2.000000
 -0.025329  0.025329  0.060790      2.000000
 -0.025329 -0.025329  0.060790      2.000000
  0.025329 -0.025329  0.060790      2.000000
 


--------------------------------------------------------------------------------------------------------




 Dimension of arrays:
   k-points           NKPTS =     23   k-points in BZ     NKDIM =     23   number of bands    NBANDS=    500
   number of dos      NEDOS =    301   number of ions     NIONS =     64
   non local maximal  LDIM  =      6   non local SUM 2l+1 LMDIM =     18
   total plane-waves  NPLWV = 176400
   max r-space proj   IRMAX =      1   max aug-charges    IRDMAX=   9034
   dimension x,y,z NGX =    70 NGY =   70 NGZ =   36
   dimension x,y,z NGXF=   140 NGYF=  140 NGZF=   72
   support grid    NGXF=   140 NGYF=  140 NGZF=   72
   ions per type =              15  14  17  18
   NGX,Y,Z   is equivalent  to a cutoff of   8.84,  8.84,  9.10 a.u.
   NGXF,Y,Z  is equivalent  to a cutoff of  17.69, 17.69, 18.19 a.u.

 SYSTEM =  unknown system                          
 POSCAR =  Nb-Mo-Ta-W alloy                        

 Startparameter for this run:
   NWRITE =      2    write-flag & timer
   PREC   = accura    normal or accurate (medium, high low for compatibility)
   ISTART =      0    job   : 0-new  1-cont  2-samecut
   ICHARG =      2    charge: 1-file 2-atom 10-const
   ISPIN  =      1    spin polarized calculation?
   LNONCOLLINEAR =      F non collinear calculations
   LSORBIT =      F    spin-orbit coupling
   INIWAV =      1    electr: 0-lowe 1-rand  2-diag
   LASPH  =      F    aspherical Exc in radial PAW
 Electronic Relaxation 1
   ENCUT  =  250.0 eV  18.37 Ry    4.29 a.u.  16.97 16.97  8.48*2*pi/ulx,y,z
   ENINI  =  250.0     initial cutoff
   ENAUG  =  455.7 eV  augmentation charge cutoff
   NELM   =     80;   NELMIN=  2; NELMDL= -5     # of ELM steps 
   EDIFF  = 0.1E-07   stopping-criterion for ELM
   LREAL  =      F    real-space projection
   NLSPLINE    = F    spline interpolate recip. space projectors
   LCOMPAT=      F    compatible to vasp.4.4
   GGA_COMPAT  = T    GGA compatible to vasp.4.4-vasp.4.6
   LMAXPAW     = -100 max onsite density
   LMAXMIX     =    2 max onsite mixed and CHGCAR
   VOSKOWN=      0    Vosko Wilk Nusair interpolation
   ROPT   =    0.00000   0.00000   0.00000   0.00000
 Ionic relaxation
   EDIFFG = -.1E-01   stopping-criterion for IOM
   NSW    =      0    number of steps for IOM
   NBLOCK =      1;   KBLOCK =      1    inner block; outer block 
   IBRION =     -1    ionic relax: 0-MD 1-quasi-New 2-CG
   NFREE  =      0    steps in history (QN), initial steepest desc. (CG)
   ISIF   =      2    stress and relaxation
   IWAVPR =     10    prediction:  0-non 1-charg 2-wave 3-comb
   ISYM   =      2    0-nonsym 1-usesym 2-fastsym
   LCORR  =      T    Harris-Foulkes like correction to forces

   POTIM  = 0.5000    time-step for ionic-motion
   TEIN   =    0.0    initial temperature
   TEBEG  =    0.0;   TEEND  =   0.0 temperature during run
   SMASS  =  -3.00    Nose mass-parameter (am)
   estimated Nose-frequenzy (Omega)   =  0.10E-29 period in steps = 0.13E+47 mass=  -0.396E-26a.u.
   SCALEE = 1.0000    scale energy and forces
   NPACO  =    256;   APACO  = 10.0  distance and # of slots for P.C.
   PSTRESS=    0.0 pullay stress

  Mass of Ions in am
   POMASS =  92.91 95.94180.95183.85
  Ionic Valenz
   ZVAL   =  13.00 14.00 11.00 14.00
  Atomic Wigner-Seitz radii
   RWIGS  =  -1.00 -1.00 -1.00 -1.00
  virtual crystal weights 
   VCA    =   1.00  1.00  1.00  1.00
   NELECT =     830.0000    total number of electrons
   NUPDOWN=      -1.0000    fix difference up-down

 DOS related values:
   EMIN   =  10.00;   EMAX   =-10.00  energy-range for DOS
   EFERMI =   0.00
   ISMEAR =     0;   SIGMA  =   0.02  broadening in eV -4-tet -1-fermi 0-gaus

 Electronic relaxation 2 (details)
   IALGO  =     38    algorithm
   LDIAG  =      T    sub-space diagonalisation (order eigenvalues)
   LSUBROT=      F    optimize rotation matrix (better conditioning)
   TURBO    =      0    0=normal 1=particle mesh
   IRESTART =      0    0=no restart 2=restart with 2 vectors
   NREBOOT  =      0    no. of reboots
   NMIN     =      0    reboot dimension
   EREF     =   0.00    reference energy to select bands
   IMIX   =      4    mixing-type and parameters
     AMIX     =   0.40;   BMIX     =  1.00
     AMIX_MAG =   1.60;   BMIX_MAG =  1.00
     AMIN     =   0.10
     WC   =   100.;   INIMIX=   1;  MIXPRE=   1;  MAXMIX= -45

 Intra band minimization:
   WEIMIN = 0.0000     energy-eigenvalue tresh-hold
   EBREAK =  0.50E-11  absolut break condition
   DEPER  =   0.30     relativ break condition  

   TIME   =   0.40     timestep for ELM

  volume/ion in A,a.u.               =      17.81       120.16
  Fermi-wavevector in a.u.,A,eV,Ry     =   1.472951  2.783474 29.518992  2.169585
  Thomas-Fermi vector in A             =   2.587903
 
 Write flags
   LWAVE        =      F    write WAVECAR
   LDOWNSAMPLE  =      F    k-point downsampling of WAVECAR
   LCHARG       =      F    write CHGCAR
   LVTOT        =      F    write LOCPOT, total local potential
   LVHAR        =      F    write LOCPOT, Hartree potential only
   LELF         =      F    write electronic localiz. function (ELF)
   LORBIT       =      0    0 simple, 1 ext, 2 COOP (PROOUT), +10 PAW based schemes


 Dipole corrections
   LMONO  =      F    monopole corrections only (constant potential shift)
   LDIPOL =      F    correct potential (dipole corrections)
   IDIPOL =      0    1-x, 2-y, 3-z, 4-all directions 
   EPSILON=  1.0000000 bulk dielectric constant

 Core level calculations are selected ICORELEVEL =  1
 Exchange correlation treatment:
   GGA     =    PE    GGA type
   LEXCH   =     8    internal setting for exchange type
   LIBXC   =     F    Libxc                    
   VOSKOWN =     0    Vosko Wilk Nusair interpolation
   LHFCALC =     F    Hartree Fock is set to
   LHFONE  =     F    Hartree Fock one center treatment
   AEXX    =    0.0000 exact exchange contribution

 Linear response parameters
   LEPSILON=     F    determine dielectric tensor
   LRPA    =     F    only Hartree local field effects (RPA)
   LNABLA  =     F    use nabla operator in PAW spheres
   LVEL    =     F    velocity operator in full k-point grid
   CSHIFT  =0.1000    complex shift for real part using Kramers Kronig
   OMEGAMAX=  -1.0    maximum frequency
   DEG_THRESHOLD= 0.2000000E-02 threshold for treating states as degnerate
   RTIME   =   -0.100 relaxation time in fs
  (WPLASMAI=    0.000 imaginary part of plasma frequency in eV, 0.658/RTIME)
   DFIELD  = 0.0000000 0.0000000 0.0000000 field for delta impulse in time
 
  Optional k-point grid parameters
   LKPOINTS_OPT  =     F    use optional k-point grid
   KPOINTS_OPT_MODE=     1    mode for optional k-point grid
 
 Orbital magnetization related:
   ORBITALMAG=     F  switch on orbital magnetization
   LCHIMAG   =     F  perturbation theory with respect to B field
   DQ        =  0.001000  dq finite difference perturbation B field
   LLRAUG    =     F  two centre corrections for induced B field



--------------------------------------------------------------------------------------------------------


 Static calculation
 charge density and potential will be updated during run
 non-spin polarized calculation
 Variant of blocked Davidson
 Davidson routine will perform the subspace rotation
 perform sub-space diagonalisation
    after iterative eigenvector-optimisation
 modified Broyden-mixing scheme, WC =      100.0
 initial mixing is a Kerker type mixing with AMIX =  0.4000 and BMIX =      1.0000
 Hartree-type preconditioning will be used
 using additional bands           85
 reciprocal scheme for non local part
 use partial core corrections
 calculate Harris-corrections to forces 
   (improved forces if not selfconsistent)
 use gradient corrections 
 use of overlap-Matrix (Vanderbilt PP)
 Gauss-broadening in eV      SIGMA  =   0.02


--------------------------------------------------------------------------------------------------------


  energy-cutoff  :      250.00
  volume of cell :     1139.56
      direct lattice vectors                 reciprocal lattice vectors
    13.160000000  0.000000000  0.000000000     0.075987842  0.000000000  0.000000000
     0.000000000 13.160000000  0.000000000     0.000000000  0.075987842  0.000000000
     0.000000000  0.000000000  6.580000000     0.000000000  0.000000000  0.151975684

  length of vectors
    13.160000000 13.160000000  6.580000000     0.075987842  0.075987842  0.151975684


 
 k-points in units of 2pi/SCALE and weight: K-Spacing Value to Generate K-Mesh: 0.03
   0.00000000  0.00000000  0.00000000       0.022
   0.02532928  0.00000000  0.00000000       0.044
   0.00000000  0.02532928  0.00000000       0.044
   0.02532928  0.02532928  0.00000000       0.044
  -0.02532928  0.02532928  0.00000000       0.044
   0.00000000  0.00000000  0.03039514       0.044
   0.02532928  0.00000000  0.03039514       0.044
   0.00000000  0.02532928  0.03039514       0.044
  -0.02532928  0.00000000  0.03039514       0.044
   0.00000000 -0.02532928  0.03039514       0.044
   0.02532928  0.02532928  0.03039514       0.044
  -0.02532928  0.02532928  0.03039514       0.044
  -0.02532928 -0.02532928  0.03039514       0.044
   0.02532928 -0.02532928  0.03039514       0.044
   0.00000000  0.00000000  0.06079027       0.044
   0.02532928  0.00000000  0.06079027       0.044
   0.00000000  0.02532928  0.06079027       0.044
  -0.02532928  0.00000000  0.06079027       0.044
   0.00000000 -0.02532928  0.06079027       0.044
   0.02532928  0.02532928  0.06079027       0.044
  -0.02532928  0.02532928  0.06079027       0.044
  -0.02532928 -0.02532928  0.06079027       0.044
   0.02532928 -0.02532928  0.06079027       0.044
 
 k-points in reciprocal lattice and weights: K-Spacing Value to Generate K-Mesh: 0.03
   0.00000000  0.00000000  0.00000000       0.022
   0.33333333  0.00000000  0.00000000       0.044
   0.00000000  0.33333333  0.00000000       0.044
   0.33333333  0.33333333  0.00000000       0.044
  -0.33333333  0.33333333  0.00000000       0.044
   0.00000000  0.00000000  0.20000000       0.044
   0.33333333  0.00000000  0.20000000       0.044
   0.00000000  0.33333333  0.20000000       0.044
  -0.33333333  0.00000000  0.20000000       0.044
   0.00000000 -0.33333333  0.20000000       0.044
   0.33333333  0.33333333  0.20000000       0.044
  -0.33333333  0.33333333  0.20000000       0.044
  -0.33333333 -0.33333333  0.20000000       0.044
   0.33333333 -0.33333333  0.20000000       0.044
   0.00000000  0.00000000  0.40000000       0.044
   0.33333333  0.00000000  0.40000000       0.044
   0.00000000  0.33333333  0.40000000       0.044
  -0.33333333  0.00000000  0.40000000       0.044
   0.00000000 -0.33333333  0.40000000       0.044
   0.33333333  0.33333333  0.40000000       0.044
  -0.33333333  0.33333333  0.40000000       0.044
  -0.33333333 -0.33333333  0.40000000       0.044
   0.33333333 -0.33333333  0.40000000       0.044
 
 position of ions in fractional coordinates (direct lattice) 
   0.12500000  0.62500000  0.25000000
   0.00000000  0.00000000  0.50000000
   0.87500000  0.62500000  0.25000000
   0.00000000  0.75000000  0.00000000
   0.25000000  0.50000000  0.50000000
   0.87500000  0.12500000  0.25000000
   0.00000000  0.25000000  0.00000000
   0.12500000  0.37500000  0.75000000
   0.00000000  0.75000000  0.50000000
   0.50000000  0.75000000  0.00000000
   0.50000000  0.50000000  0.50000000
   0.62500000  0.37500000  0.75000000
   0.87500000  0.87500000  0.25000000
   0.00000000  0.25000000  0.50000000
   0.37500000  0.12500000  0.75000000
   0.37500000  0.87500000  0.25000000
   0.25000000  0.50000000  0.00000000
   0.50000000  0.50000000  0.00000000
   0.50000000  0.25000000  0.50000000
   0.37500000  0.12500000  0.25000000
   0.25000000  0.25000000  0.00000000
   0.37500000  0.37500000  0.75000000
   0.25000000  0.75000000  0.50000000
   0.00000000  0.50000000  0.50000000
   0.62500000  0.12500000  0.75000000
   0.75000000  0.50000000  0.50000000
   0.75000000  0.75000000  0.00000000
   0.37500000  0.62500000  0.25000000
   0.50000000  0.25000000  0.00000000
   0.62500000  0.87500000  0.75000000
   0.25000000  0.25000000  0.50000000
   0.62500000  0.12500000  0.25000000
   0.12500000  0.12500000  0.25000000
   0.12500000  0.62500000  0.75000000
   0.75000000  0.25000000  0.00000000
   0.75000000  0.25000000  0.50000000
   0.75000000  0.00000000  0.50000000
   0.75000000  0.50000000  0.00000000
   0.12500000  0.12500000  0.75000000
   0.25000000  0.00000000  0.50000000
   0.75000000  0.00000000  0.00000000
   0.25000000  0.75000000  0.00000000
   0.87500000  0.12500000  0.75000000
   0.50000000  0.00000000  0.00000000
   0.75000000  0.75000000  0.50000000
   0.25000000  0.00000000  0.00000000
   0.12500000  0.37500000  0.25000000
   0.62500000  0.62500000  0.75000000
   0.50000000  0.00000000  0.50000000
   0.12500000  0.87500000  0.75000000
   0.00000000  0.00000000  0.00000000
   0.87500000  0.37500000  0.25000000
   0.37500000  0.87500000  0.75000000
   0.00000000  0.50000000  0.00000000
   0.87500000  0.87500000  0.75000000
   0.62500000  0.87500000  0.25000000
   0.87500000  0.62500000  0.75000000
   0.62500000  0.37500000  0.25000000
   0.87500000  0.37500000  0.75000000
   0.50000000  0.75000000  0.50000000
   0.12500000  0.87500000  0.25000000
   0.37500000  0.37500000  0.25000000
   0.37500000  0.62500000  0.75000000
   0.62500000  0.62500000  0.25000000
 
 position of ions in cartesian coordinates  (Angst):
   1.64500000  8.22500000  1.64500000
   0.00000000  0.00000000  3.29000000
  11.51500000  8.22500000  1.64500000
   0.00000000  9.87000000  0.00000000
   3.29000000  6.58000000  3.29000000
  11.51500000  1.64500000  1.64500000
   0.00000000  3.29000000  0.00000000
   1.64500000  4.93500000  4.93500000
   0.00000000  9.87000000  3.29000000
   6.58000000  9.87000000  0.00000000
   6.58000000  6.58000000  3.29000000
   8.22500000  4.93500000  4.93500000
  11.51500000 11.51500000  1.64500000
   0.00000000  3.29000000  3.29000000
   4.93500000  1.64500000  4.93500000
   4.93500000 11.51500000  1.64500000
   3.29000000  6.58000000  0.00000000
   6.58000000  6.58000000  0.00000000
   6.58000000  3.29000000  3.29000000
   4.93500000  1.64500000  1.64500000
   3.29000000  3.29000000  0.00000000
   4.93500000  4.93500000  4.93500000
   3.29000000  9.87000000  3.29000000
   0.00000000  6.58000000  3.29000000
   8.22500000  1.64500000  4.93500000
   9.87000000  6.58000000  3.29000000
   9.87000000  9.87000000  0.00000000
   4.93500000  8.22500000  1.64500000
   6.58000000  3.29000000  0.00000000
   8.22500000 11.51500000  4.93500000
   3.29000000  3.29000000  3.29000000
   8.22500000  1.64500000  1.64500000
   1.64500000  1.64500000  1.64500000
   1.64500000  8.22500000  4.93500000
   9.87000000  3.29000000  0.00000000
   9.87000000  3.29000000  3.29000000
   9.87000000  0.00000000  3.29000000
   9.87000000  6.58000000  0.00000000
   1.64500000  1.64500000  4.93500000
   3.29000000  0.00000000  3.29000000
   9.87000000  0.00000000  0.00000000
   3.29000000  9.87000000  0.00000000
  11.51500000  1.64500000  4.93500000
   6.58000000  0.00000000  0.00000000
   9.87000000  9.87000000  3.29000000
   3.29000000  0.00000000  0.00000000
   1.64500000  4.93500000  1.64500000
   8.22500000  8.22500000  4.93500000
   6.58000000  0.00000000  3.29000000
   1.64500000 11.51500000  4.93500000
   0.00000000  0.00000000  0.00000000
  11.51500000  4.93500000  1.64500000
   4.93500000 11.51500000  4.93500000
   0.00000000  6.58000000  0.00000000
  11.51500000 11.51500000  4.93500000
   8.22500000 11.51500000  1.64500000
  11.51500000  8.22500000  4.93500000
   8.22500000  4.93500000  1.64500000
  11.51500000  4.93500000  4.93500000
   6.58000000  9.87000000  3.29000000
   1.64500000 11.51500000  1.64500000
   4.93500000  4.93500000  1.64500000
   4.93500000  8.22500000  4.93500000
   8.22500000  8.22500000  1.64500000
 


--------------------------------------------------------------------------------------------------------


 k-point   1 :   0.0000 0.0000 0.0000  plane waves:   10181
 k-point   2 :   0.3333 0.0000 0.0000  plane waves:   10238
 k-point   3 :   0.0000 0.3333 0.0000  plane waves:   10238
 k-point   4 :   0.3333 0.3333 0.0000  plane waves:   10248
 k-point   5 :  -0.3333 0.3333 0.0000  plane waves:   10248
 k-point   6 :   0.0000 0.0000 0.2000  plane waves:   10193
 k-point   7 :   0.3333 0.0000 0.2000  plane waves:   10246
 k-point   8 :   0.0000 0.3333 0.2000  plane waves:   10246
 k-point   9 :  -0.3333 0.0000 0.2000  plane waves:   10246
 k-point  10 :   0.0000-0.3333 0.2000  plane waves:   10246
 k-point  11 :   0.3333 0.3333 0.2000  plane waves:   10238
 k-point  12 :  -0.3333 0.3333 0.2000  plane waves:   10238
 k-point  13 :  -0.3333-0.3333 0.2000  plane waves:   10238
 k-point  14 :   0.3333-0.3333 0.2000  plane waves:   10238
 k-point  15 :   0.0000 0.0000 0.4000  plane waves:   10201
 k-point  16 :   0.3333 0.0000 0.4000  plane waves:   10223
 k-point  17 :   0.0000 0.3333 0.4000  plane waves:   10223
 k-point  18 :  -0.3333 0.0000 0.4000  plane waves:   10223
 k-point  19 :   0.0000-0.3333 0.4000  plane waves:   10223
 k-point  20 :   0.3333 0.3333 0.4000  plane waves:   10193
 k-point  21 :  -0.3333 0.3333 0.4000  plane waves:   10193
 k-point  22 :  -0.3333-0.3333 0.4000  plane waves:   10193
 k-point  23 :   0.3333-0.3333 0.4000  plane waves:   10193

 maximum and minimum number of plane-waves per node :       880      830

 maximum number of plane-waves:     10248
 maximum index in each direction: 
   IXMAX=   17   IYMAX=   17   IZMAX=    8
   IXMIN=  -17   IYMIN=  -17   IZMIN=   -8


 parallel 3D FFT for wavefunctions:
    minimum data exchange during FFTs selected (reduces bandwidth)
 parallel 3D FFT for charge:
    minimum data exchange during FFTs selected (reduces bandwidth)


 total amount of memory used by VASP MPI-rank0    90992. kBytes
=======================================================================

   base      :      30000. kBytes
   nonl-proj :      12216. kBytes
   fftplans  :       1504. kBytes
   grid      :       2835. kBytes
   one-center:         93. kBytes
   wavefun   :      44344. kBytes
 
     INWAV:  cpu time      0.0000: real time      0.0000
 Broyden mixing: mesh for mixing (old mesh)
   NGX = 33   NGY = 33   NGZ = 17
  (NGX  =140   NGY  =140   NGZ  = 72)
  gives a total of  18513 points

 initial charge density was supplied:
 charge density of overlapping atoms calculated
 number of electron     830.0000000 magnetization 
 keeping initial charge density in first step


--------------------------------------------------------------------------------------------------------


 Maximum index for augmentation-charges          505 (set IRDMAX)


--------------------------------------------------------------------------------------------------------


 First call to EWALD:  gamma=   0.170
 Maximum number of real-space cells 2x 2x 4
 Maximum number of reciprocal cells 3x 3x 2

    FEWALD:  cpu time      0.1340: real time      0.1346


--------------------------------------- Iteration      1(   1)  ---------------------------------------


    POTLOK:  cpu time      0.3023: real time      0.4010
    SETDIJ:  cpu time      0.2278: real time      0.2417
     EDDAV:  cpu time    103.1430: real time    106.4209
       DOS:  cpu time      0.4624: real time      0.4640
    --------------------------------------------
      LOOP:  cpu time    104.1355: real time    107.5276

 eigenvalue-minimisations  : 23360
 total energy-change (2. order) : 0.8039682E+04  (-0.3210732E+05)
 number of electron     830.0000000 magnetization 
 augmentation part      830.0000000 magnetization 

 Free energy of the ion-electron system (eV)
  ---------------------------------------------------
  alpha Z        PSCENC =      7418.48827646
  Ewald energy   TEWEN  =    -85745.68496838
  -Hartree energ DENC   =    -16324.76121012
  -exchange      EXHF   =         0.00000000
  -V(xc)+E(xc)   XCENC  =      3213.53582590
  PAW double counting   =     79774.89521256   -78544.31526802
  entropy T*S    EENTRO =        -0.00421528
  eigenvalues    EBANDS =     -2528.64410379
  atomic energy  EATOM  =    100776.17200827
  Solvation  Ediel_sol  =         0.00000000
  ---------------------------------------------------
  free energy    TOTEN  =      8039.68155760 eV

  energy without entropy =     8039.68577288  energy(sigma->0) =     8039.68366524


--------------------------------------------------------------------------------------------------------




--------------------------------------- Iteration      1(   2)  ---------------------------------------


     EDDAV:  cpu time     87.4746: real time     93.4731
       DOS:  cpu time      0.5280: real time      0.5298
    --------------------------------------------
      LOOP:  cpu time     88.0026: real time     94.0028

 eigenvalue-minimisations  : 23056
 total energy-change (2. order) :-0.8038648E+04  (-0.7796557E+04)
 number of electron     830.0000000 magnetization 
 augmentation part      830.0000000 magnetization 

 Free energy of the ion-electron system (eV)
  ---------------------------------------------------
  alpha Z        PSCENC =      7418.48827646
  Ewald energy   TEWEN  =    -85745.68496838
  -Hartree energ DENC   =    -16324.76121012
  -exchange      EXHF   =         0.00000000
  -V(xc)+E(xc)   XCENC  =      3213.53582590
  PAW double counting   =     79774.89521256   -78544.31526802
  entropy T*S    EENTRO =        -0.00873274
  eigenvalues    EBANDS =    -10567.28763783
  atomic energy  EATOM  =    100776.17200827
  Solvation  Ediel_sol  =         0.00000000
  ---------------------------------------------------
  free energy    TOTEN  =         1.03350610 eV

  energy without entropy =        1.04223883  energy(sigma->0) =        1.03787247


--------------------------------------------------------------------------------------------------------




--------------------------------------- Iteration      1(   3)  ---------------------------------------


     EDDAV:  cpu time     66.6832: real time     68.7964
       DOS:  cpu time      0.5907: real time      0.5929
    --------------------------------------------
      LOOP:  cpu time     67.2739: real time     69.3894

 eigenvalue-minimisations  : 33576
 total energy-change (2. order) :-0.7254343E+03  (-0.6798218E+03)
 number of electron     830.0000000 magnetization 
 augmentation part      830.0000000 magnetization 

 Free energy of the ion-electron system (eV)
  ---------------------------------------------------
  alpha Z        PSCENC =      7418.48827646
  Ewald energy   TEWEN  =    -85745.68496838
  -Hartree energ DENC   =    -16324.76121012
  -exchange      EXHF   =         0.00000000
  -V(xc)+E(xc)   XCENC  =      3213.53582590
  PAW double counting   =     79774.89521256   -78544.31526802
  entropy T*S    EENTRO =        -0.00845963
  eigenvalues    EBANDS =    -11292.72216316
  atomic energy  EATOM  =    100776.17200827
  Solvation  Ediel_sol  =         0.00000000
  ---------------------------------------------------
  free energy    TOTEN  =      -724.40074612 eV

  energy without entropy =     -724.39228649  energy(sigma->0) =     -724.39651631


--------------------------------------------------------------------------------------------------------




--------------------------------------- Iteration      1(   4)  ---------------------------------------


     EDDAV:  cpu time     69.3262: real time     72.1134
       DOS:  cpu time      0.1951: real time      0.2608
    --------------------------------------------
      LOOP:  cpu time     69.5213: real time     72.3742

 eigenvalue-minimisations  : 33528
 total energy-change (2. order) :-0.5361604E+02  (-0.5151005E+02)
 number of electron     830.0000000 magnetization 
 augmentation part      830.0000000 magnetization 

 Free energy of the ion-electron system (eV)
  ---------------------------------------------------
  alpha Z        PSCENC =      7418.48827646
  Ewald energy   TEWEN  =    -85745.68496838
  -Hartree energ DENC   =    -16324.76121012
  -exchange      EXHF   =         0.00000000
  -V(xc)+E(xc)   XCENC  =      3213.53582590
  PAW double counting   =     79774.89521256   -78544.31526802
  entropy T*S    EENTRO =        -0.01119276
  eigenvalues    EBANDS =    -11346.33547161
  atomic energy  EATOM  =    100776.17200827
  Solvation  Ediel_sol  =         0.00000000
  ---------------------------------------------------
  free energy    TOTEN  =      -778.01678770 eV

  energy without entropy =     -778.00559494  energy(sigma->0) =     -778.01119132


--------------------------------------------------------------------------------------------------------




--------------------------------------- Iteration      1(   5)  ---------------------------------------


     EDDAV:  cpu time    101.9153: real time    107.8303
       DOS:  cpu time      0.3412: real time      0.3425
    CHARGE:  cpu time      0.6651: real time      0.8387
    MIXING:  cpu time      0.1455: real time      0.2891
    --------------------------------------------
      LOOP:  cpu time    103.0671: real time    109.3006

 eigenvalue-minimisations  : 38888
 total energy-change (2. order) :-0.3418646E+01  (-0.3385879E+01)
 number of electron     829.9999734 magnetization 
 augmentation part      178.5374512 magnetization 

 Broyden mixing:
  rms(total) = 0.10863E+02    rms(broyden)= 0.10861E+02
  rms(prec ) = 0.11204E+02
  weight for this iteration     100.00

 Free energy of the ion-electron system (eV)
  ---------------------------------------------------
  alpha Z        PSCENC =      7418.48827646
  Ewald energy   TEWEN  =    -85745.68496838
  -Hartree energ DENC   =    -16324.76121012
  -exchange      EXHF   =         0.00000000
  -V(xc)+E(xc)   XCENC  =      3213.53582590
  PAW double counting   =     79774.89521256   -78544.31526802
  entropy T*S    EENTRO =        -0.01151450
  eigenvalues    EBANDS =    -11349.75379626
  atomic energy  EATOM  =    100776.17200827
  Solvation  Ediel_sol  =         0.00000000
  ---------------------------------------------------
  free energy    TOTEN  =      -781.43543410 eV

  energy without entropy =     -781.42391960  energy(sigma->0) =     -781.42967685


--------------------------------------------------------------------------------------------------------




--------------------------------------- Iteration      1(   6)  ---------------------------------------


    POTLOK:  cpu time      0.3664: real time      0.4072
    SETDIJ:  cpu time      0.1174: real time      0.1648
     EDDAV:  cpu time     89.1825: real time     92.7254
       DOS:  cpu time      0.5048: real time      0.5977
    CHARGE:  cpu time      0.7379: real time      0.9093
    MIXING:  cpu time      0.1938: real time      0.1946
    --------------------------------------------
      LOOP:  cpu time     91.1027: real time     94.9990

 eigenvalue-minimisations  : 28440
 total energy-change (2. order) : 0.2358439E+02  (-0.9579427E+01)
 number of electron     829.9999732 magnetization 
 augmentation part      185.3283967 magnetization 

 Broyden mixing:
  rms(total) = 0.42339E+01    rms(broyden)= 0.42329E+01
  rms(prec ) = 0.59542E+01
  weight for this iteration     100.00

 eigenvalues of (default mixing * dielectric matrix)
  average eigenvalue GAMMA=   1.4545
  1.4545

 Free energy of the ion-electron system (eV)
  ---------------------------------------------------
  alpha Z        PSCENC =      7418.48827646
  Ewald energy   TEWEN  =    -85745.68496838
  -Hartree energ DENC   =    -15411.11999963
  -exchange      EXHF   =         0.00000000
  -V(xc)+E(xc)   XCENC  =      3169.56258415
  PAW double counting   =     95181.80483607   -94066.82101078
  entropy T*S    EENTRO =        -0.01132726
  eigenvalues    EBANDS =    -12080.24144537
  atomic energy  EATOM  =    100776.17200827
  Solvation  Ediel_sol  =         0.00000000
  ---------------------------------------------------
  free energy    TOTEN  =      -757.85104647 eV

  energy without entropy =     -757.83971921  energy(sigma->0) =     -757.84538284


--------------------------------------------------------------------------------------------------------




--------------------------------------- Iteration      1(   7)  ---------------------------------------


    POTLOK:  cpu time      0.0587: real time      0.0591
    SETDIJ:  cpu time      0.0044: real time      0.0044
     EDDAV:  cpu time     34.3259: real time     36.4891
       DOS:  cpu time      0.0065: real time      0.0065
    CHARGE:  cpu time      0.4841: real time      0.4858
    MIXING:  cpu time      0.2817: real time      0.2829
    --------------------------------------------
      LOOP:  cpu time     35.1612: real time     37.3280

 eigenvalue-minimisations  : 32352
 total energy-change (2. order) :-0.5186387E+02  (-0.1785059E+02)
 number of electron     829.9999714 magnetization 
 augmentation part      184.8952717 magnetization 

 Broyden mixing:
  rms(total) = 0.42459E+01    rms(broyden)= 0.42429E+01
  rms(prec ) = 0.12500E+02
  weight for this iteration     100.00

 eigenvalues of (default mixing * dielectric matrix)
  average eigenvalue GAMMA=   0.9496
  1.5788  0.3203

 Free energy of the ion-electron system (eV)
  ---------------------------------------------------
  alpha Z        PSCENC =      7418.48827646
  Ewald energy   TEWEN  =    -85745.68496838
  -Hartree energ DENC   =    -15254.60387813
  -exchange      EXHF   =         0.00000000
  -V(xc)+E(xc)   XCENC  =      3157.35011548
  PAW double counting   =    103101.48388293  -102018.82774011
  entropy T*S    EENTRO =        -0.01457964
  eigenvalues    EBANDS =    -12244.07803180
  atomic energy  EATOM  =    100776.17200827
  Solvation  Ediel_sol  =         0.00000000
  ---------------------------------------------------
  free energy    TOTEN  =      -809.71491492 eV

  energy without entropy =     -809.70033528  energy(sigma->0) =     -809.70762510


--------------------------------------------------------------------------------------------------------




--------------------------------------- Iteration      1(   8)  ---------------------------------------


    POTLOK:  cpu time      0.0930: real time      0.0937
    SETDIJ:  cpu time      0.0044: real time      0.0044
     EDDAV:  cpu time     43.4123: real time     45.3319
       DOS:  cpu time      0.3268: real time      0.3283
    CHARGE:  cpu time      0.4364: real time      0.5956
    MIXING:  cpu time      0.1369: real time      0.1756
    --------------------------------------------
      LOOP:  cpu time     44.4100: real time     46.5297

 eigenvalue-minimisations  : 33424
 total energy-change (2. order) : 0.6579355E+02  (-0.1614626E+02)
 number of electron     829.9999726 magnetization 
 augmentation part      186.6829922 magnetization 

 Broyden mixing:
  rms(total) = 0.15801E+01    rms(broyden)= 0.15753E+01
  rms(prec ) = 0.27397E+01
  weight for this iteration     100.00

 eigenvalues of (default mixing * dielectric matrix)
  average eigenvalue GAMMA=   0.8496
  1.6907  0.5908  0.2671

 Free energy of the ion-electron system (eV)
  ---------------------------------------------------
  alpha Z        PSCENC =      7418.48827646
  Ewald energy   TEWEN  =    -85745.68496838
  -Hartree energ DENC   =    -15029.92240994
  -exchange      EXHF   =         0.00000000
  -V(xc)+E(xc)   XCENC  =      3148.42913601
  PAW double counting   =    108266.31530386  -107211.88147735
  entropy T*S    EENTRO =        -0.00967367
  eigenvalues    EBANDS =    -12365.82755813
  atomic energy  EATOM  =    100776.17200827
  Solvation  Ediel_sol  =         0.00000000
  ---------------------------------------------------
  free energy    TOTEN  =      -743.92136288 eV

  energy without entropy =     -743.91168921  energy(sigma->0) =     -743.91652604


--------------------------------------------------------------------------------------------------------




--------------------------------------- Iteration      1(   9)  ---------------------------------------


    POTLOK:  cpu time      0.0213: real time      0.0216
    SETDIJ:  cpu time      0.0043: real time      0.0043
     EDDAV:  cpu time     37.1640: real time     38.2824
       DOS:  cpu time      0.0080: real time      0.0080
[...]
 -0.007   0.008   0.003  -0.009   0.005   0.000   0.006  -0.001   3.236  -0.004   0.049   0.004  -0.002  -1.342   0.006  -0.020
 -0.008  -0.012   0.005   0.005  -0.008  -0.009  -0.002   0.003  -0.004   3.259  -0.031   0.103   0.051   0.006  -1.354   0.013
  0.001   0.018   0.002   0.004  -0.002  -0.005  -0.002   0.004   0.049  -0.031   2.630   0.003  -0.025  -0.019   0.013  -1.189
  0.001  -0.003  -0.008   0.003   0.005   0.004   0.000  -0.010   0.004   0.103   0.003   3.234   0.005  -0.014  -0.068  -0.001
  0.001   0.020   0.004   0.000   0.004  -0.010  -0.000  -0.007  -0.002   0.051  -0.025   0.005   2.606   0.001  -0.022   0.008
  0.005  -0.020  -0.002   0.006  -0.003  -0.001  -0.003   0.002  -1.342   0.006  -0.019  -0.014   0.001   0.567  -0.004   0.008
  0.007  -0.001  -0.003  -0.003   0.005   0.005   0.002  -0.002   0.006  -1.354   0.013  -0.068  -0.022  -0.004   0.574  -0.005
 -0.001  -0.008  -0.002  -0.003   0.001   0.002   0.001  -0.001  -0.020   0.013  -1.189  -0.001   0.008   0.008  -0.005   0.545
 -0.001   0.003   0.006  -0.002  -0.003  -0.002  -0.001   0.006  -0.014  -0.068  -0.001  -1.345  -0.003   0.011   0.038   0.000
 -0.001  -0.008  -0.003  -0.000  -0.002   0.004   0.000   0.003   0.001  -0.023   0.008  -0.003  -1.177  -0.000   0.010  -0.002


------------------------ aborting loop because EDIFF is reached ----------------------------------------


    CHARGE:  cpu time      0.5054: real time      0.5072
    FORLOC:  cpu time      0.0045: real time      0.0045
    FORNL :  cpu time     15.6428: real time     15.7342
    STRESS:  cpu time     15.6961: real time     15.7921
    FORCOR:  cpu time      0.0185: real time      0.0186
    FORHAR:  cpu time      0.0085: real time      0.0087
    MIXING:  cpu time      0.0012: real time      0.0012
    OFIELD:  cpu time      0.0000: real time      0.0000

  FORCE on cell =-STRESS in cart. coord.  units (eV):
  Direction    XX          YY          ZZ          XY          YZ          ZX
  --------------------------------------------------------------------------------------
  Alpha Z  7418.48828  7418.48828  7418.48828
  Ewald  -28544.35423-28903.40866-28298.36212    -4.00813    40.00098   -10.14076
  Hartree  5029.87339  4678.28691  5270.55421    -2.57590    37.64565    -9.17626
  E(xc)   -3806.61940 -3806.57401 -3806.66143     0.00474    -0.04852     0.02528
  Local    6289.79925  6998.23616  5801.20690     5.76793   -76.51784    18.10821
  n-local -1403.52267 -1402.20382 -1404.13943     0.45081    -0.04343    -0.53975
  augment  2310.10048  2310.25907  2310.46125     0.34066    -0.31773     0.26394
  Kinetic 12607.20556 12607.41384 12610.64911    -0.36182     0.49643     1.07601
  Fock        0.00000     0.00000     0.00000     0.00000     0.00000     0.00000
  -------------------------------------------------------------------------------------
  Total     -99.02934   -99.50223   -97.80324    -0.38171     1.21553    -0.38333
  in kB    -139.23127  -139.89614  -137.50742    -0.53667     1.70898    -0.53895
  external pressure =     -138.88 kB  Pullay stress =        0.00 kB


 VOLUME and BASIS-vectors are now :
 -----------------------------------------------------------------------------
  energy-cutoff  :      250.00
  volume of cell :     1139.56
      direct lattice vectors                 reciprocal lattice vectors
    13.160000000  0.000000000  0.000000000     0.075987842  0.000000000  0.000000000
     0.000000000 13.160000000  0.000000000     0.000000000  0.075987842  0.000000000
     0.000000000  0.000000000  6.580000000     0.000000000  0.000000000  0.151975684

  length of vectors
    13.160000000 13.160000000  6.580000000     0.075987842  0.075987842  0.151975684


 FORCES acting on ions
    electron-ion (+dipol)            ewald-force                    non-local-force                 convergence-correction
 -----------------------------------------------------------------------------------------------
   0.238E+02 -.747E+02 0.170E+02   -.240E+02 0.742E+02 -.170E+02   0.276E+00 0.581E-01 0.132E+00   -.274E-04 0.173E-04 0.301E-04
   0.253E+02 -.133E+03 -.104E+02   -.250E+02 0.132E+03 0.106E+02   -.125E+00 0.632E-01 -.160E+00   0.318E-05 0.301E-04 -.126E-04
   0.191E+02 -.641E+02 0.405E+00   -.190E+02 0.636E+02 -.432E+00   -.220E+00 -.109E+00 0.514E-01   0.238E-04 0.102E-04 0.118E-04
   -.170E+02 -.575E+02 0.206E+01   0.174E+02 0.580E+02 -.251E+01   -.337E+00 -.714E-01 0.197E+00   -.518E-05 0.267E-05 0.212E-04
   0.795E+02 0.195E+02 -.286E+02   -.784E+02 -.201E+02 0.283E+02   -.415E+00 0.380E+00 0.425E-01   0.383E-04 -.301E-04 -.100E-04
   0.832E+02 0.362E+02 -.937E+01   -.830E+02 -.366E+02 0.911E+01   0.138E+00 0.345E+00 0.874E-01   0.949E-05 0.108E-04 -.730E-06
   0.375E+02 0.185E+03 0.278E+02   -.381E+02 -.184E+03 -.276E+02   0.370E+00 -.192E+00 -.536E-02   0.143E-04 -.323E-04 0.994E-05
   0.294E+02 0.135E+03 0.357E+02   -.295E+02 -.135E+03 -.352E+02   0.255E-01 -.323E-01 -.103E+00   0.155E-05 -.570E-04 -.404E-04
   0.217E+02 -.666E+02 -.206E+01   -.220E+02 0.673E+02 0.251E+01   0.263E+00 -.390E+00 -.173E+00   -.155E-04 -.104E-04 -.209E-04
   -.348E+02 -.155E+03 0.278E+02   0.341E+02 0.155E+03 -.276E+02   0.183E+00 -.218E+00 0.644E-01   -.419E-04 -.217E-04 0.761E-05
   -.379E+02 0.360E+02 -.109E+02   0.374E+02 -.357E+02 0.106E+02   0.276E+00 -.798E-01 0.818E-01   -.458E-04 -.475E-04 -.383E-06
   -.132E+03 0.127E+03 -.173E+02   0.132E+03 -.127E+03 0.174E+02   -.717E-01 0.639E-01 -.705E-01   -.537E-04 -.166E-04 -.643E-05
   0.682E+02 -.132E+03 -.336E+02   -.681E+02 0.132E+03 0.331E+02   0.115E+00 -.773E-01 0.110E+00   0.138E-04 -.581E-05 0.961E-05
   0.115E+02 0.194E+03 -.278E+02   -.118E+02 -.193E+03 0.276E+02   -.214E-01 0.166E+00 0.378E-01   0.183E-04 -.207E-04 -.102E-04
   0.844E+02 0.107E+03 -.435E+00   -.843E+02 -.107E+03 0.432E+00   0.238E+00 0.171E+00 0.595E-01   -.334E-04 0.413E-04 -.233E-04
   0.471E+02 -.152E+03 0.663E+02   -.469E+02 0.151E+03 -.659E+02   -.117E+00 -.686E-01 0.102E-01   -.281E-04 0.217E-04 -.151E-04
   0.912E+02 -.269E+02 0.306E+02   -.908E+02 0.271E+02 -.305E+02   0.348E-01 -.311E+00 -.936E-03   0.497E-04 -.226E-04 0.114E-04
   -.681E+02 0.272E+02 0.116E+02   0.684E+02 -.267E+02 -.114E+02   -.339E+00 -.400E+00 -.289E-02   -.238E-04 -.255E-04 0.100E-05
   -.781E+02 0.145E+03 0.691E+01   0.780E+02 -.145E+03 -.718E+01   -.131E-01 -.435E+00 0.840E-01   -.425E-04 0.474E-05 -.203E-04
   0.707E+02 0.114E+03 0.516E+00   -.704E+02 -.114E+03 -.465E+00   0.146E+00 0.362E+00 -.539E-01   -.202E-04 0.438E-04 0.234E-04
   0.114E+03 0.202E+03 0.213E+02   -.114E+03 -.202E+03 -.210E+02   0.577E+00 0.410E+00 -.736E-01   0.249E-04 -.541E-04 0.107E-04
   0.494E+02 0.113E+03 0.458E+02   -.494E+02 -.113E+03 -.455E+02   0.990E-01 0.314E+00 0.139E+00   0.508E-04 -.519E-04 -.457E-04
   0.808E+02 -.839E+02 -.212E+02   -.808E+02 0.844E+02 0.213E+02   0.483E+00 0.653E-02 -.120E+00   0.113E-04 0.515E-05 -.167E-04
   -.152E+02 0.634E+01 -.209E+02   0.151E+02 -.671E+01 0.210E+02   -.318E+00 0.472E-01 -.268E-01   -.306E-06 -.202E-05 -.197E-04
   -.173E+03 0.101E+03 -.283E+02   0.173E+03 -.101E+03 0.282E+02   -.175E+00 0.169E+00 -.264E-01   -.180E-04 0.496E-04 -.166E-04
   -.293E+02 0.502E+02 -.193E+01   0.290E+02 -.501E+02 0.194E+01   0.298E+00 0.247E-01 -.150E-02   0.115E-04 -.129E-04 -.105E-04
   -.139E+02 -.146E+03 0.109E+02   0.137E+02 0.146E+03 -.111E+02   -.591E-02 -.763E-01 0.141E-01   0.287E-04 0.365E-05 0.151E-04
   0.502E+02 -.736E+02 0.199E+02   -.503E+02 0.737E+02 -.199E+02   0.337E+00 -.264E+00 -.472E-01   0.413E-04 -.119E-04 0.155E-05
   -.106E+03 0.174E+03 -.686E+01   0.106E+03 -.174E+03 0.718E+01   -.431E+00 0.268E+00 -.136E+00   -.331E-04 0.930E-06 0.201E-04
   -.785E+02 -.132E+03 -.934E+01   0.782E+02 0.131E+03 0.904E+01   0.111E+00 -.141E+00 0.116E+00   0.426E-05 0.481E-05 -.504E-06
   0.933E+02 0.150E+03 -.169E+02   -.930E+02 -.150E+03 0.165E+02   0.376E+00 -.520E-01 0.409E-01   0.328E-04 -.215E-04 -.879E-05
   -.131E+03 0.685E+02 0.224E+02   0.131E+03 -.683E+02 -.222E+02   -.348E+00 0.891E-01 0.337E-02   -.185E-04 0.374E-04 0.127E-04
   0.469E+01 0.477E+02 -.300E+02   -.498E+01 -.477E+02 0.295E+02   0.255E+00 0.131E+00 -.196E-01   0.288E-04 0.161E-04 -.192E-05
   0.130E+02 -.564E+02 -.143E+02   -.131E+02 0.557E+02 0.144E+02   0.113E+00 0.254E+00 -.968E-01   -.222E-04 0.116E-04 -.251E-04
   -.383E+02 0.144E+03 0.123E+01   0.386E+02 -.144E+03 -.122E+01   -.432E+00 0.666E-02 -.224E-01   -.256E-05 -.164E-04 0.100E-04
   -.413E+02 0.159E+03 -.127E+01   0.416E+02 -.159E+03 0.122E+01   -.408E+00 0.221E+00 0.846E-01   -.121E-04 -.217E-04 -.106E-04
   -.182E+02 -.686E+02 -.819E+01   0.183E+02 0.683E+02 0.839E+01   -.407E+00 0.513E-01 0.880E-02   0.154E-04 0.264E-04 -.120E-04
   -.277E+02 0.565E+02 0.152E+01   0.278E+02 -.567E+02 -.153E+01   -.467E-02 0.251E+00 0.298E-02   0.155E-05 -.164E-04 0.820E-05
   0.101E+02 0.408E+02 0.299E+02   -.102E+02 -.406E+02 -.295E+02   -.127E+00 -.227E+00 0.103E+00   0.262E-04 0.169E-04 0.279E-05
   0.696E+02 -.101E+03 -.949E+01   -.696E+02 0.100E+03 0.930E+01   0.474E+00 -.209E+00 -.731E-01   0.128E-04 0.481E-04 -.115E-04
   0.719E+01 -.856E+02 0.824E+01   -.763E+01 0.856E+02 -.839E+01   0.273E+00 -.241E+00 -.603E-01   0.194E-04 0.307E-04 0.113E-04
   0.549E+02 -.744E+02 0.168E+02   -.543E+02 0.753E+02 -.168E+02   -.146E-01 -.405E+00 0.812E-01   0.209E-04 0.162E-04 0.120E-04
   0.549E+02 0.255E+02 0.794E+01   -.543E+02 -.257E+02 -.771E+01   -.703E-01 -.797E-02 -.133E-01   0.113E-04 0.121E-04 0.116E-05
   -.701E+02 -.272E+02 0.890E+01   0.698E+02 0.266E+02 -.869E+01   0.352E-01 0.478E+00 0.215E-01   -.288E-04 0.360E-04 0.170E-04
   -.200E+02 -.130E+03 -.844E+01   0.199E+02 0.130E+03 0.869E+01   -.301E+00 -.261E+00 -.675E-01   0.285E-04 0.572E-05 -.118E-04
   0.442E+02 -.631E+02 0.950E+01   -.437E+02 0.620E+02 -.930E+01   -.221E+00 0.217E+00 0.690E-01   0.417E-05 0.412E-04 0.115E-04
   0.318E+02 0.157E+03 -.382E+02   -.319E+02 -.156E+03 0.379E+02   0.174E+00 0.565E-02 -.132E+00   -.338E-05 -.554E-04 0.391E-04
   -.875E+02 -.712E+02 -.209E+01   0.875E+02 0.713E+02 0.200E+01   -.307E-01 0.237E-01 0.442E-01   -.362E-04 -.318E-04 0.109E-04
   -.924E+02 -.458E+02 -.112E+02   0.922E+02 0.455E+02 0.111E+02   -.904E-01 -.996E-01 -.271E-01   -.375E-04 0.687E-04 -.217E-04
   -.208E+02 -.126E+03 -.187E+02   0.207E+02 0.126E+03 0.187E+02   -.192E-01 -.826E-01 -.406E-01   0.113E-04 0.224E-04 0.609E-05
   0.237E+02 -.139E+03 0.113E+02   -.235E+02 0.139E+03 -.114E+02   -.361E-01 -.179E+00 -.839E-01   0.889E-05 0.311E-04 0.123E-04
   0.673E+02 0.171E+03 0.263E+02   -.670E+02 -.171E+03 -.263E+02   0.761E-02 0.235E+00 0.921E-01   0.122E-04 -.840E-05 -.837E-06
   0.298E+02 -.153E+03 -.662E+02   -.292E+02 0.153E+03 0.659E+02   -.299E+00 -.446E+00 -.199E+00   -.242E-04 0.212E-04 0.158E-04
   0.122E+02 0.248E+01 0.210E+02   -.129E+02 -.288E+01 -.210E+02   0.208E+00 -.425E-01 -.188E-01   -.288E-04 -.571E-05 0.200E-04
   0.907E+02 -.159E+03 0.358E+02   -.910E+02 0.159E+03 -.356E+02   0.319E+00 -.375E+00 0.153E+00   0.958E-05 0.775E-06 -.795E-05
   -.107E+03 -.186E+03 0.117E+02   0.107E+03 0.186E+03 -.115E+02   -.380E+00 -.412E+00 0.276E-01   0.221E-05 0.865E-05 0.469E-06
   0.847E+01 -.621E+02 -.416E+00   -.805E+01 0.618E+02 0.465E+00   -.340E+00 -.882E-01 -.188E-01   0.230E-04 0.593E-06 -.139E-04
   -.143E+03 0.156E+03 0.186E+02   0.142E+03 -.156E+03 -.187E+02   -.274E+00 0.304E+00 0.327E-01   -.560E-04 -.332E-04 0.745E-05
   0.612E+02 0.189E+03 -.263E+02   -.610E+02 -.189E+03 0.263E+02   0.172E-01 0.509E+00 -.924E-01   0.477E-05 -.182E-04 0.332E-06
   -.790E+02 -.138E+03 -.298E+02   0.792E+02 0.138E+03 0.297E+02   -.230E+00 0.207E+00 -.591E-01   -.302E-04 -.226E-04 -.807E-05
   -.131E+02 -.137E+03 0.187E+02   0.128E+02 0.137E+03 -.187E+02   0.353E+00 0.689E-01 0.643E-02   0.918E-05 0.188E-04 -.718E-05
   0.435E+02 0.111E+03 -.459E+02   -.434E+02 -.111E+03 0.455E+02   -.126E-01 -.214E-01 -.189E+00   0.457E-04 -.515E-04 0.470E-04
   0.625E+02 -.748E+02 -.199E+02   -.628E+02 0.748E+02 0.199E+02   0.258E+00 -.440E-01 0.557E-02   0.444E-04 -.187E-04 -.339E-05
   -.964E+02 -.566E+02 0.205E+01   0.966E+02 0.567E+02 -.200E+01   -.298E+00 -.866E-01 -.162E-01   -.333E-04 -.252E-04 -.112E-04
 -----------------------------------------------------------------------------------------------
   0.996E-01 0.245E+00 0.227E+00   -.149E-11 0.112E-11 0.517E-13   -.996E-01 -.245E+00 -.227E+00   -.450E-05 -.525E-04 -.639E-05
 
 
 POSITION                                       TOTAL-FORCE (eV/Angst)
 -----------------------------------------------------------------------------------
      1.64500      8.22500      1.64500         0.085384     -0.446950      0.074186
      0.00000      0.00000      3.29000         0.184551     -0.723509      0.067233
     11.51500      8.22500      1.64500        -0.118990     -0.544646      0.024753
      0.00000      9.87000      0.00000         0.107887      0.399879     -0.255547
      3.29000      6.58000      3.29000         0.611133     -0.211731     -0.247314
     11.51500      1.64500      1.64500         0.338780      0.007743     -0.173563
      0.00000      3.29000      0.00000        -0.190474      0.671789      0.219520
      1.64500      4.93500      4.93500        -0.071402      0.493077      0.402361
      0.00000      9.87000      3.29000        -0.106126      0.314432      0.282380
      6.58000      9.87000      0.00000        -0.498464     -0.253762      0.259545
      6.58000      6.58000      3.29000        -0.218858      0.252133     -0.173866
      8.22500      4.93500      4.93500        -0.548234      0.201825     -0.037270
     11.51500     11.51500      1.64500         0.203758     -0.137776     -0.363573
      0.00000      3.29000      3.29000        -0.307114      0.770807     -0.202837
      4.93500      1.64500      4.93500         0.385273      0.542050      0.056515
      4.93500     11.51500      1.64500         0.126235     -0.268241      0.437746
      3.29000      6.58000      0.00000         0.411181     -0.088284      0.168120
      6.58000      6.58000      0.00000        -0.046793      0.084917      0.182338
      6.58000      3.29000      3.29000        -0.107946      0.193216     -0.191380
      4.93500      1.64500      1.64500         0.446805      0.457070     -0.003042
      3.29000      3.29000      0.00000         0.431674      0.355824      0.299345
      4.93500      4.93500      4.93500         0.180007     -0.115029      0.369848
      3.29000      9.87000      3.29000         0.511170      0.442930      0.000649
      0.00000      6.58000      3.29000        -0.348099     -0.321949     -0.003839
      8.22500      1.64500      4.93500        -0.413917      0.002289     -0.150394
      9.87000      6.58000      3.29000        -0.028525      0.075000      0.009467
      9.87000      9.87000      0.00000        -0.253313     -0.238687     -0.180473
      4.93500      8.22500      1.64500         0.224203     -0.184290      0.032121
      6.58000      3.29000      0.00000        -0.224025      0.231551      0.189205
      8.22500     11.51500      4.93500        -0.207436     -0.464976     -0.184642
      3.29000      3.29000      3.29000         0.666758      0.457680     -0.417622
      8.22500      1.64500      1.64500        -0.856676      0.310619      0.224924
      1.64500      1.64500      1.64500        -0.034180      0.098830     -0.483337
      1.64500      8.22500      4.93500        -0.029661     -0.406325     -0.041293
      9.87000      3.29000      0.00000        -0.158140      0.585644     -0.014783
      9.87000      3.29000      3.29000        -0.109319      0.419072      0.041170
      9.87000      0.00000      3.29000        -0.328235     -0.294558      0.212317
      9.87000      6.58000      0.00000         0.072187     -0.037878     -0.004848
      1.64500      1.64500      4.93500        -0.171256     -0.028833      0.485923
      3.29000      0.00000      3.29000         0.446529     -0.711607     -0.263647
      9.87000      0.00000      0.00000        -0.164519     -0.187377     -0.212307
      3.29000      9.87000      0.00000         0.596664      0.458032      0.127779
     11.51500      1.64500      4.93500         0.561690     -0.198783      0.225800
      6.58000      0.00000      0.00000        -0.272916     -0.143051      0.228628
      9.87000      9.87000      3.29000        -0.355187     -0.169341      0.186900
      3.29000      0.00000      0.00000         0.284806     -0.838494      0.272490
      1.64500      4.93500      1.64500         0.093704      0.208346     -0.405269
      8.22500      8.22500      4.93500        -0.036797      0.102685     -0.052335
      6.58000      0.00000      3.29000        -0.294327     -0.350475     -0.169691
      1.64500     11.51500      4.93500        -0.050748     -0.090172      0.003687
      0.00000      0.00000      0.00000         0.143623     -0.648737     -0.192642
     11.51500      4.93500      1.64500         0.317002      0.739841      0.120313
      4.93500     11.51500      4.93500         0.289059     -0.221582     -0.578808
      0.00000      6.58000      0.00000        -0.559132     -0.442418     -0.006585
     11.51500     11.51500      4.93500        -0.033596      0.075665      0.352421
      8.22500     11.51500      1.64500        -0.308499     -0.061914      0.232058
     11.51500      8.22500      4.93500         0.078491     -0.423835      0.029907
      8.22500      4.93500      1.64500        -0.538041     -0.107713     -0.031809
     11.51500      4.93500      4.93500         0.191969      0.545053     -0.121882
      6.58000      9.87000      3.29000        -0.081082     -0.191467     -0.151066
      1.64500     11.51500      1.64500         0.040056      0.191489     -0.007905
      4.93500      4.93500      1.64500         0.131092     -0.116932     -0.525817
      4.93500      8.22500      4.93500         0.004695      0.004176     -0.007428
      8.22500      8.22500      1.64500        -0.094344     -0.022339      0.037166
 -----------------------------------------------------------------------------------
    total drift:                                0.000002     -0.000103      0.000006


--------------------------------------------------------------------------------------------------------



  FREE ENERGIE OF THE ION-ELECTRON SYSTEM (eV)
  ---------------------------------------------------
  free  energy   TOTEN  =      -742.23246986 eV

  energy  without entropy=     -742.22120848  energy(sigma->0) =     -742.22683917
 


--------------------------------------------------------------------------------------------------------


    POTLOK:  cpu time      0.6050: real time      0.6074


--------------------------------------------------------------------------------------------------------


     LOOP+:  cpu time   1611.0065: real time   1676.5541
    4ORBIT:  cpu time      0.0000: real time      0.0000

 total amount of memory used by VASP MPI-rank0    90992. kBytes
=======================================================================

   base      :      30000. kBytes
   nonl-proj :      12216. kBytes
   fftplans  :       1504. kBytes
   grid      :       2835. kBytes
   one-center:         93. kBytes
   wavefun   :      44344. kBytes
 
  
  
 General timing and accounting informations for this job:
 ========================================================
  
                  Total CPU time used (sec):     1724.245
                            User time (sec):     1697.668
                          System time (sec):       26.577
                         Elapsed time (sec):     1801.162
  
                   Maximum memory used (kb):      156064.
                   Average memory used (kb):          N/A
  
                          Minor page faults:        79868
                          Major page faults:            0
                 Voluntary context switches:          236
