 vasp.6.3.1 04May22 (build Jul 26 2022 04:02:40) complex                        
  
 executed on             LinuxIFC date 2023.11.30  02:08:51
 running on   48 total cores
 distrk:  each k-point on   48 cores,    1 groups
 distr:  one band on NCORE=  12 cores,    4 groups


--------------------------------------------------------------------------------------------------------


 INCAR:
   ISTART = 0
   NWRITE = 2
   PREC = Accurate
   ENCUT = 250
   GGA = PE
   NSW = 0
   ISIF = 2
   ISYM = 2
   NBLOCK = 1
   KBLOCK = 1
   IBRION = -1
   NELM = 80
   EDIFF = 1E-08
   EDIFFG = -0.01
   ALGO = Normal
   LDIAG = .TRUE.
   LREAL = .FALSE.
   ISMEAR = 0
   SIGMA = 0.02
   ICHARG = 2
   LPLANE = .TRUE.
   NPAR = 4
   LSCALU = .FALSE.
   NSIM = 4
   LWAVE = .FALSE.
   LCHARG = .FALSE.
   ICORELEVEL = 1

 POTCAR:    PAW_PBE Nb_sv 25May2007               
 POTCAR:    PAW_PBE Mo_sv 02Feb2006               
 POTCAR:    PAW_PBE Ta_pv 07Sep2000               
 POTCAR:    PAW_PBE W_sv 04Sep2015                
 POTCAR:    PAW_PBE Nb_sv 25May2007               
   SHA256 =  0e8fc07c9fcd1164cf2ade22d0399fd28f85e91cd773dfa6cf24839a48c95e24 Nb_sv/POTCAR          
   COPYR  = (c) Copyright 25May2007 Georg Kresse                                                    
   COPYR  = This file is part of the software VASP. Any use, copying, and all other rights are regul
   COPYR  = If you do not have a valid VASP license, you may not use, copy or distribute this file. 
   VRHFIN =Nb: 4p5s4d                                                                               
   LEXCH  = PE                                                                                      
   EATOM  =  1555.1913 eV,  114.3033 Ry                                                             
                                                                                                    
   TITEL  = PAW_PBE Nb_sv 25May2007                                                                 
   LULTRA =        F    use ultrasoft PP ?                                                          
   IUNSCR =        1    unscreen: 0-lin 1-nonlin 2-no                                               
   RPACOR =    1.800    partial core radius                                                         
   POMASS =   92.910; ZVAL   =   13.000    mass and valenz                                          
   RCORE  =    2.400    outmost cutoff radius                                                       
   RWIGS  =    2.400; RWIGS  =    1.270    wigner-seitz radius (au A)                               
   ENMAX  =  293.235; ENMIN  =  219.927 eV                                                          
   ICORE  =        3    local potential                                                             
   LCOR   =        T    correct aug charges                                                         
   LPAW   =        T    paw PP                                                                      
   EAUG   =  455.659                                                                                
   DEXC   =    0.000                                                                                
   RMAX   =    2.456    core radius for proj-oper                                                   
   RAUG   =    1.300    factor for augmentation sphere                                              
   RDEP   =    2.451    radius for radial grids                                                     
   RDEPT  =    1.956    core radius for aug-charge                                                  
                                                                                                    
   Atomic configuration                                                                             
   11 entries                                                                                       
     n  l   j            E        occ.                                                              
     1  0  0.50    -18805.2457   2.0000                                                             
     2  0  0.50     -2630.2869   2.0000                                                             
     2  1  1.50     -2348.4046   6.0000                                                             
     3  0  0.50      -438.8757   2.0000                                                             
     3  1  1.50      -346.7588   6.0000                                                             
     3  2  2.50      -196.2560  10.0000                                                             
     4  0  0.50       -58.3859   2.0000                                                             
     5  0  0.50        -3.9816   1.0000                                                             
     4  1  1.50       -34.5141   6.0000                                                             
     4  2  2.50        -3.0408   4.0000                                                             
     4  3  2.50        -1.3606   0.0000                                                             
   Description                                                                                      
     l       E           TYP  RCUT    TYP  RCUT                                                     
     0    -58.3859094     23  2.200                                                                 
     0     -3.9816262     23  2.200                                                                 
     1    -34.5140738     23  2.200                                                                 
     1     13.6058260     23  2.200                                                                 
     2     -3.0408010     23  2.200                                                                 
     2     -0.1283038     23  2.200                                                                 
     3     -1.3605826     23  2.400                                                                 
  local pseudopotential read in
  partial core-charges read in
  partial kinetic energy density read in
  atomic valenz-charges read in
  non local Contribution for L=           0  read in
    real space projection operators read in
  non local Contribution for L=           0  read in
    real space projection operators read in
  non local Contribution for L=           1  read in
    real space projection operators read in
  non local Contribution for L=           1  read in
    real space projection operators read in
  non local Contribution for L=           2  read in
    real space projection operators read in
  non local Contribution for L=           2  read in
    real space projection operators read in
    PAW grid and wavefunctions read in
 
   number of l-projection  operators is LMAX  =           6
   number of lm-projection operators is LMMAX =          18
 
 POTCAR:    PAW_PBE Mo_sv 02Feb2006               
   SHA256 =  2731df97e41766cc617548c5a8267718fdef1f509ac6bafa01e745abea2bdfaa Mo_sv/POTCAR          
   COPYR  = (c) Copyright 02Feb2006 Georg Kresse                                                    
   COPYR  = This file is part of the software VASP. Any use, copying, and all other rights are regul
   COPYR  = If you do not have a valid VASP license, you may not use, copy or distribute this file. 
   VRHFIN =Mo: 4p5s4d                                                                               
   LEXCH  = PE                                                                                      
   EATOM  =  1862.2866 eV,  136.8742 Ry                                                             
                                                                                                    
   TITEL  = PAW_PBE Mo_sv 02Feb2006                                                                 
   LULTRA =        F    use ultrasoft PP ?                                                          
   IUNSCR =        1    unscreen: 0-lin 1-nonlin 2-no                                               
   RPACOR =    2.200    partial core radius                                                         
   POMASS =   95.940; ZVAL   =   14.000    mass and valenz                                          
   RCORE  =    2.500    outmost cutoff radius                                                       
   RWIGS  =    2.750; RWIGS  =    1.455    wigner-seitz radius (au A)                               
   ENMAX  =  242.676; ENMIN  =  182.007 eV                                                          
   ICORE  =        3    local potential                                                             
   LCOR   =        T    correct aug charges                                                         
   LPAW   =        T    paw PP                                                                      
   EAUG   =  446.014                                                                                
   DEXC   =    0.000                                                                                
   RMAX   =    2.563    core radius for proj-oper                                                   
   RAUG   =    1.300    factor for augmentation sphere                                              
   RDEP   =    2.641    radius for radial grids                                                     
   RDEPT  =    2.031    core radius for aug-charge                                                  
                                                                                                    
   Atomic configuration                                                                             
   11 entries                                                                                       
     n  l   j            E        occ.                                                              
     1  0  0.50    -19819.0341   2.0000                                                             
     2  0  0.50     -2799.0127   2.0000                                                             
     2  1  1.50     -2502.0276   6.0000                                                             
     3  0  0.50      -476.4449   2.0000                                                             
     3  1  1.50      -379.1496   6.0000                                                             
     3  2  2.50      -220.9367  10.0000                                                             
     4  0  0.50       -64.3378   2.0000                                                             
     5  0  0.50        -4.0862   1.0000                                                             
     4  1  1.50       -38.4773   6.0000                                                             
     4  2  2.50        -3.7535   5.0000                                                             
     4  3  2.50        -1.3606   0.0000                                                             
   Description                                                                                      
     l       E           TYP  RCUT    TYP  RCUT                                                     
     0    -64.3377829     23  2.100                                                                 
     0     -4.0861640     23  2.400                                                                 
     1    -38.4772993     23  2.100                                                                 
     1     13.6058260     23  2.100                                                                 
     2     -3.7534941     23  2.400                                                                 
     2     -5.1140767     23  2.400                                                                 
     3     -4.0817478     23  2.500                                                                 
  local pseudopotential read in
  partial core-charges read in
  partial kinetic energy density read in
  atomic valenz-charges read in
  non local Contribution for L=           0  read in
    real space projection operators read in
  non local Contribution for L=           0  read in
    real space projection operators read in
  non local Contribution for L=           1  read in
    real space projection operators read in
  non local Contribution for L=           1  read in
    real space projection operators read in
  non local Contribution for L=           2  read in
    real space projection operators read in
  non local Contribution for L=           2  read in
    real space projection operators read in
    PAW grid and wavefunctions read in
 
   number of l-projection  operators is LMAX  =           6
   number of lm-projection operators is LMMAX =          18
 
 POTCAR:    PAW_PBE Ta_pv 07Sep2000               
   SHA256 =  00d0a14a36c127416459414afb8617d9754996fffa60a2465888e660b20a452f Ta_pv/POTCAR          
   COPYR  = (c) Copyright 07Sep2000 Georg Kresse                                                    
   COPYR  = This file is part of the software VASP. Any use, copying, and all other rights are regul
   COPYR  = If you do not have a valid VASP license, you may not use, copy or distribute this file. 
   VRHFIN =Ta:  5p6s5d                                                                              
   LEXCH  = PE                                                                                      
   EATOM  =  1047.1984 eV,   76.9669 Ry                                                             
                                                                                                    
   TITEL  = PAW_PBE Ta_pv 07Sep2000                                                                 
   LULTRA =        F    use ultrasoft PP ?                                                          
   IUNSCR =        1    unscreen: 0-lin 1-nonlin 2-no                                               
   RPACOR =    2.330    partial core radius                                                         
   POMASS =  180.948; ZVAL   =   11.000    mass and valenz                                          
   RCORE  =    2.500    outmost cutoff radius                                                       
   RWIGS  =    2.840; RWIGS  =    1.503    wigner-seitz radius (au A)                               
   ENMAX  =  223.667; ENMIN  =  167.750 eV                                                          
   RCLOC  =    2.205    cutoff for local pot                                                        
   LCOR   =        T    correct aug charges                                                         
   LPAW   =        T    paw PP                                                                      
   EAUG   =  377.421                                                                                
   DEXC   =    0.000                                                                                
   RMAX   =    2.551    core radius for proj-oper                                                   
   RAUG   =    1.300    factor for augmentation sphere                                              
   RDEP   =    2.526    radius for radial grids                                                     
   RDEPT  =    2.132    core radius for aug-charge                                                  
                                                                                                    
   Atomic configuration                                                                             
   15 entries                                                                                       
     n  l   j            E        occ.                                                              
     1  0  0.50    -67341.2801   2.0000                                                             
     2  0  0.50    -11566.9369   2.0000                                                             
     2  1  1.50    -10134.1175   6.0000                                                             
     3  0  0.50     -2648.5614   2.0000                                                             
     3  1  1.50     -2222.6006   6.0000                                                             
     3  2  2.50     -1726.3114  10.0000                                                             
     4  0  0.50      -538.6957   2.0000                                                             
     4  1  1.50      -399.0125   6.0000                                                             
     4  2  2.50      -220.3955  10.0000                                                             
     4  3  3.50       -23.0371  14.0000                                                             
     5  0  0.50       -71.2900   2.0000                                                             
     5  1  1.50       -37.8224   6.0000                                                             
     5  2  2.50        -2.6455   4.0000                                                             
     6  0  0.50        -4.9623   1.0000                                                             
     5  3  2.50        -1.3606   0.0000                                                             
   Description                                                                                      
     l       E           TYP  RCUT    TYP  RCUT                                                     
     1    -37.8224449     23  2.500                                                                 
     1      1.3605826     23  2.500                                                                 
     2     -2.6454718     23  2.500                                                                 
     2     -0.6258570     23  2.500                                                                 
     0     -4.9622674     23  2.500                                                                 
     0      4.7531427     23  2.500                                                                 
  local pseudopotential read in
  partial core-charges read in
  partial kinetic energy density read in
  atomic valenz-charges read in
  non local Contribution for L=           1  read in
    real space projection operators read in
  non local Contribution for L=           1  read in
    real space projection operators read in
  non local Contribution for L=           2  read in
    real space projection operators read in
  non local Contribution for L=           2  read in
    real space projection operators read in
  non local Contribution for L=           0  read in
    real space projection operators read in
  non local Contribution for L=           0  read in
    real space projection operators read in
    PAW grid and wavefunctions read in
 
   number of l-projection  operators is LMAX  =           6
   number of lm-projection operators is LMMAX =          18
 
 POTCAR:    PAW_PBE W_sv 04Sep2015                
   SHA256 =  931c2d770f65867ef30f3db3421922900fc0890ebac5c3e12f63b6a2064023d7 W_sv/POTCAR           
   COPYR  = (c) Copyright 04Sep2015 Georg Kresse                                                    
   COPYR  = This file is part of the software VASP. Any use, copying, and all other rights are regul
   COPYR  = If you do not have a valid VASP license, you may not use, copy or distribute this file. 
   VRHFIN =W : 5p6s5d                                                                               
   LEXCH  = PE                                                                                      
   EATOM  =  1865.5791 eV,  137.1162 Ry                                                             
                                                                                                    
   TITEL  = PAW_PBE W_sv 04Sep2015                                                                  
   LULTRA =        F    use ultrasoft PP ?                                                          
   IUNSCR =        1    unscreen: 0-lin 1-nonlin 2-no                                               
   RPACOR =    2.330    partial core radius                                                         
   POMASS =  183.850; ZVAL   =   14.000    mass and valenz                                          
   RCORE  =    2.500    outmost cutoff radius                                                       
   RWIGS  =    2.750; RWIGS  =    1.455    wigner-seitz radius (au A)                               
   ENMAX  =  223.057; ENMIN  =  167.293 eV                                                          
   ICORE  =        3    local potential                                                             
   LCOR   =        T    correct aug charges                                                         
   LPAW   =        T    paw PP                                                                      
   EAUG   =  373.438                                                                                
   DEXC   =    0.000                                                                                
   RMAX   =    2.565    core radius for proj-oper                                                   
   RAUG   =    1.300    factor for augmentation sphere                                              
   RDEP   =    2.539    radius for radial grids                                                     
   RDEPT  =    2.126    core radius for aug-charge                                                  
                                                                                                    
   Atomic configuration                                                                             
   15 entries                                                                                       
     n  l   j            E        occ.                                                              
     1  0  0.50    -69465.5834   2.0000                                                             
     2  0  0.50    -11986.2640   2.0000                                                             
     2  1  1.50    -10479.8613   6.0000                                                             
     3  0  0.50     -2759.0756   2.0000                                                             
     3  1  1.50     -2313.1855   6.0000                                                             
     3  2  2.50     -1801.1183  10.0000                                                             
     4  0  0.50      -567.6789   2.0000                                                             
     4  1  1.50      -421.4692   6.0000                                                             
     4  2  2.50      -236.3471  10.0000                                                             
     4  3  3.50       -31.2665  14.0000                                                             
     5  0  0.50       -77.1084   2.0000                                                             
     6  0  0.50        -5.1438   1.0000                                                             
     5  1  1.50       -41.3856   6.0000                                                             
     5  2  2.50        -3.3185   5.0000                                                             
     5  3  2.50        -1.3606   0.0000                                                             
   Description                                                                                      
     l       E           TYP  RCUT    TYP  RCUT                                                     
     0    -77.1084470     23  2.100                                                                 
     0     -5.1437956     23  2.300                                                                 
     1    -41.3855615     23  2.500                                                                 
     1     -2.7211652     23  2.500                                                                 
     2     -3.3185025     23  2.500                                                                 
     2     -1.5965151     23  2.500                                                                 
     3     -1.3605826     23  2.500                                                                 
  local pseudopotential read in
  partial core-charges read in
  partial kinetic energy density read in
  kinetic energy density of atom read in
  atomic valenz-charges read in
  non local Contribution for L=           0  read in
    real space projection operators read in
  non local Contribution for L=           0  read in
    real space projection operators read in
  non local Contribution for L=           1  read in
    real space projection operators read in
  non local Contribution for L=           1  read in
    real space projection operators read in
  non local Contribution for L=           2  read in
    real space projection operators read in
  non local Contribution for L=           2  read in
    real space projection operators read in
    PAW grid and wavefunctions read in
 
   number of l-projection  operators is LMAX  =           6
   number of lm-projection operators is LMMAX =          18
 
  PAW_PBE Nb_sv 25May2007               :
 energy of atom  1       EATOM=-1555.1913
 kinetic energy error for atom=    0.2155 (will be added to EATOM!!)
  PAW_PBE Mo_sv 02Feb2006               :
 energy of atom  2       EATOM=-1862.2866
 kinetic energy error for atom=    0.1102 (will be added to EATOM!!)
  PAW_PBE Ta_pv 07Sep2000               :
 energy of atom  3       EATOM=-1047.1984
 kinetic energy error for atom=    0.0394 (will be added to EATOM!!)
  PAW_PBE W_sv 04Sep2015                :
 energy of atom  4       EATOM=-1865.5791
 kinetic energy error for atom=    0.0589 (will be added to EATOM!!)
 
 
 POSCAR: Nb-Mo-Ta-W alloy
  positions in direct lattice
  No initial velocities read in
 exchange correlation table for  LEXCH =        8
   RHO(1)=    0.500       N(1)  =     2000
   RHO(2)=  100.500       N(2)  =     4000
 


--------------------------------------------------------------------------------------------------------


 ion  position               nearest neighbor table
   1  0.250  0.250  0.750-   2 2.85   3 2.85   4 2.85   7 2.85   8 2.85  10 2.85  11 2.85  12 2.85

   2  0.000  0.500  0.000-   1 2.85   5 2.85   6 2.85   9 2.85  13 2.85  14 2.85  15 2.85  16 2.85
                            12 3.29  12 3.29
   3  0.500  0.500  0.500-   1 2.85   5 2.85   6 2.85   9 2.85  13 2.85  14 2.85  15 2.85  16 2.85
                            12 3.29  12 3.29
   4  0.000  0.000  0.000-   1 2.85   5 2.85   6 2.85   9 2.85  13 2.85  14 2.85  15 2.85  16 2.85
                            11 3.29  11 3.29
   5  0.750  0.250  0.750-   2 2.85   3 2.85   4 2.85   7 2.85   8 2.85  10 2.85  11 2.85  12 2.85
                            14 3.29  14 3.29
   6  0.750  0.750  0.750-   2 2.85   3 2.85   4 2.85   7 2.85   8 2.85  10 2.85  11 2.85  12 2.85
                            13 3.29  13 3.29
   7  0.500  0.000  0.500-   1 2.85   5 2.85   6 2.85   9 2.85  13 2.85  14 2.85  15 2.85  16 2.85
                            10 3.29  11 3.29  10 3.29  11 3.29
   8  0.500  0.500  0.000-   1 2.85   5 2.85   6 2.85   9 2.85  13 2.85  14 2.85  15 2.85  16 2.85
                            10 3.29  10 3.29
   9  0.250  0.750  0.250-   2 2.85   3 2.85   4 2.85   7 2.85   8 2.85  10 2.85  11 2.85  12 2.85
                            13 3.29  15 3.29  16 3.29  15 3.29  16 3.29  13 3.29
  10  0.500  0.000  0.000-   1 2.85   5 2.85   6 2.85   9 2.85  13 2.85  14 2.85  15 2.85  16 2.85
                             8 3.29   7 3.29   7 3.29   8 3.29
  11  0.000  0.000  0.500-   1 2.85   5 2.85   6 2.85   9 2.85  13 2.85  14 2.85  15 2.85  16 2.85
                             4 3.29  12 3.29   7 3.29   4 3.29  12 3.29   7 3.29
  12  0.000  0.500  0.500-   1 2.85   5 2.85   6 2.85   9 2.85  13 2.85  14 2.85  15 2.85  16 2.85
                             2 3.29  11 3.29   3 3.29   2 3.29  11 3.29   3 3.29
  13  0.750  0.750  0.250-   2 2.85   3 2.85   4 2.85   7 2.85   8 2.85  10 2.85  11 2.85  12 2.85
                             9 3.29   6 3.29  14 3.29   6 3.29  14 3.29   9 3.29
  14  0.750  0.250  0.250-   2 2.85   3 2.85   4 2.85   7 2.85   8 2.85  10 2.85  11 2.85  12 2.85
                             5 3.29  13 3.29  16 3.29   5 3.29  13 3.29  16 3.29
  15  0.250  0.750  0.750-   2 2.85   3 2.85   4 2.85   7 2.85   8 2.85  10 2.85  11 2.85  12 2.85
                             9 3.29   9 3.29
  16  0.250  0.250  0.250-   2 2.85   3 2.85   4 2.85   7 2.85   8 2.85  10 2.85  11 2.85  12 2.85
                             9 3.29  14 3.29   9 3.29  14 3.29
 
  LATTYP: Found a simple cubic cell.
 ALAT       =     6.5800000000
  
  Lattice vectors:
  
 A1 = (   6.5800000000,   0.0000000000,   0.0000000000)
 A2 = (   0.0000000000,   6.5800000000,   0.0000000000)
 A3 = (   0.0000000000,   0.0000000000,   6.5800000000)


Analysis of symmetry for initial positions (statically):
=====================================================================
 Subroutine PRICEL returns:
 Original cell was already a primitive cell.
 

 Routine SETGRP: Setting up the symmetry group for a 
 simple cubic supercell.


 Subroutine GETGRP returns: Found  1 space group operations
 (whereof  1 operations were pure point group operations)
 out of a pool of 48 trial point group operations.


The static configuration has the point symmetry C_1 .


Analysis of symmetry for dynamics (positions and initial velocities):
=====================================================================
 Subroutine PRICEL returns:
 Original cell was already a primitive cell.
 

 Routine SETGRP: Setting up the symmetry group for a 
 simple cubic supercell.


 Subroutine GETGRP returns: Found  1 space group operations
 (whereof  1 operations were pure point group operations)
 out of a pool of 48 trial point group operations.


The dynamic configuration has the point symmetry C_1 .


 Subroutine INISYM returns: Found  1 space group operations
 (whereof  1 operations are pure point group operations),
 and found     1 'primitive' translations


----------------------------------------------------------------------------------------

                                     Primitive cell                                     

  volume of cell :     284.8903

  direct lattice vectors                    reciprocal lattice vectors
     6.580000000  0.000000000  0.000000000     0.151975684  0.000000000  0.000000000
     0.000000000  6.580000000  0.000000000     0.000000000  0.151975684  0.000000000
     0.000000000  0.000000000  6.580000000     0.000000000  0.000000000  0.151975684

  length of vectors
     6.580000000  6.580000000  6.580000000     0.151975684  0.151975684  0.151975684

  position of ions in fractional coordinates (direct lattice)
     0.250000000  0.250000000  0.750000000
     0.000000000  0.500000000  0.000000000
     0.500000000  0.500000000  0.500000000
     0.000000000  0.000000000  0.000000000
     0.750000000  0.250000000  0.750000000
     0.750000000  0.750000000  0.750000000
     0.500000000  0.000000000  0.500000000
     0.500000000  0.500000000  0.000000000
     0.250000000  0.750000000  0.250000000
     0.500000000  0.000000000  0.000000000
     0.000000000  0.000000000  0.500000000
     0.000000000  0.500000000  0.500000000
     0.750000000  0.750000000  0.250000000
     0.750000000  0.250000000  0.250000000
     0.250000000  0.750000000  0.750000000
     0.250000000  0.250000000  0.250000000

  ion indices of the primitive-cell ions
   primitive index   ion index
                 1           1
                 2           2
                 3           3
                 4           4
                 5           5
                 6           6
                 7           7
                 8           8
                 9           9
                10          10
                11          11
                12          12
                13          13
                14          14
                15          15
                16          16

----------------------------------------------------------------------------------------

 
 
 KPOINTS: K-Spacing Value to Generate K-Mesh: 0.03

Automatic generation of k-mesh.
 Grid dimensions read from file:
 generate k-points for:    5    5    5

 Generating k-lattice:

  Cartesian coordinates                     Fractional coordinates (reciprocal lattice)
     0.030395137  0.000000000  0.000000000     0.200000000  0.000000000  0.000000000
     0.000000000  0.030395137  0.000000000     0.000000000  0.200000000  0.000000000
     0.000000000  0.000000000  0.030395137     0.000000000  0.000000000  0.200000000

  Length of vectors
     0.030395137  0.030395137  0.030395137

  Shift w.r.t. Gamma in fractional coordinates (k-lattice)
     0.000000000  0.000000000  0.000000000

 
 Subroutine IBZKPT returns following result:
 ===========================================
 
 Found     63 irreducible k-points:
 
 Following reciprocal coordinates:
            Coordinates               Weight
  0.000000  0.000000  0.000000      1.000000
  0.200000  0.000000  0.000000      2.000000
  0.000000  0.200000  0.000000      2.000000
  0.000000  0.000000  0.200000      2.000000
  0.400000  0.000000  0.000000      2.000000
  0.000000  0.400000  0.000000      2.000000
  0.000000  0.000000  0.400000      2.000000
  0.200000  0.200000  0.000000      2.000000
  0.000000  0.200000  0.200000      2.000000
  0.200000  0.000000  0.200000      2.000000
 -0.200000  0.200000  0.000000      2.000000
 -0.200000  0.000000  0.200000      2.000000
  0.000000 -0.200000  0.200000      2.000000
  0.400000  0.200000  0.000000      2.000000
  0.000000  0.400000  0.200000      2.000000
  0.200000  0.000000  0.400000      2.000000
 -0.200000  0.400000  0.000000      2.000000
 -0.400000  0.000000  0.200000      2.000000
  0.000000  0.200000  0.400000      2.000000
  0.000000 -0.400000  0.200000      2.000000
 -0.200000  0.000000  0.400000      2.000000
  0.400000  0.000000  0.200000      2.000000
  0.000000 -0.200000  0.400000      2.000000
  0.400000 -0.200000  0.000000      2.000000
  0.200000  0.400000  0.000000      2.000000
  0.400000  0.400000  0.000000      2.000000
  0.000000  0.400000  0.400000      2.000000
  0.400000  0.000000  0.400000      2.000000
 -0.400000  0.400000  0.000000      2.000000
 -0.400000  0.000000  0.400000      2.000000
  0.000000 -0.400000  0.400000      2.000000
  0.200000  0.200000  0.200000      2.000000
 -0.200000  0.200000  0.200000      2.000000
 -0.200000 -0.200000  0.200000      2.000000
  0.200000 -0.200000  0.200000      2.000000
  0.400000  0.200000  0.200000      2.000000
  0.200000  0.400000  0.200000      2.000000
  0.200000  0.200000  0.400000      2.000000
 -0.200000  0.400000  0.200000      2.000000
 -0.400000  0.200000  0.200000      2.000000
 -0.200000  0.200000  0.400000      2.000000
 -0.400000 -0.200000  0.200000      2.000000
 -0.200000 -0.400000  0.200000      2.000000
 -0.200000 -0.200000  0.400000      2.000000
  0.200000 -0.400000  0.200000      2.000000
  0.400000 -0.200000  0.200000      2.000000
  0.200000 -0.200000  0.400000      2.000000
  0.400000  0.400000  0.200000      2.000000
  0.200000  0.400000  0.400000      2.000000
  0.400000  0.200000  0.400000      2.000000
 -0.400000  0.400000  0.200000      2.000000
 -0.400000  0.200000  0.400000      2.000000
 -0.200000  0.400000  0.400000      2.000000
 -0.400000 -0.400000  0.200000      2.000000
 -0.200000 -0.400000  0.400000      2.000000
 -0.400000 -0.200000  0.400000      2.000000
  0.400000 -0.400000  0.200000      2.000000
  0.400000 -0.200000  0.400000      2.000000
  0.200000 -0.400000  0.400000      2.000000
  0.400000  0.400000  0.400000      2.000000
 -0.400000  0.400000  0.400000      2.000000
 -0.400000 -0.400000  0.400000      2.000000
  0.400000 -0.400000  0.400000      2.000000
 
 Following cartesian coordinates:
            Coordinates               Weight
  0.000000  0.000000  0.000000      1.000000
  0.030395  0.000000  0.000000      2.000000
  0.000000  0.030395  0.000000      2.000000
  0.000000  0.000000  0.030395      2.000000
  0.060790  0.000000  0.000000      2.000000
  0.000000  0.060790  0.000000      2.000000
  0.000000  0.000000  0.060790      2.000000
  0.030395  0.030395  0.000000      2.000000
  0.000000  0.030395  0.030395      2.000000
  0.030395  0.000000  0.030395      2.000000
 -0.030395  0.030395  0.000000      2.000000
 -0.030395  0.000000  0.030395      2.000000
  0.000000 -0.030395  0.030395      2.000000
  0.060790  0.030395  0.000000      2.000000
  0.000000  0.060790  0.030395      2.000000
  0.030395  0.000000  0.060790      2.000000
 -0.030395  0.060790  0.000000      2.000000
 -0.060790  0.000000  0.030395      2.000000
  0.000000  0.030395  0.060790      2.000000
  0.000000 -0.060790  0.030395      2.000000
 -0.030395  0.000000  0.060790      2.000000
  0.060790  0.000000  0.030395      2.000000
  0.000000 -0.030395  0.060790      2.000000
  0.060790 -0.030395  0.000000      2.000000
  0.030395  0.060790  0.000000      2.000000
  0.060790  0.060790  0.000000      2.000000
  0.000000  0.060790  0.060790      2.000000
  0.060790  0.000000  0.060790      2.000000
 -0.060790  0.060790  0.000000      2.000000
 -0.060790  0.000000  0.060790      2.000000
  0.000000 -0.060790  0.060790      2.000000
  0.030395  0.030395  0.030395      2.000000
 -0.030395  0.030395  0.030395      2.000000
 -0.030395 -0.030395  0.030395      2.000000
  0.030395 -0.030395  0.030395      2.000000
  0.060790  0.030395  0.030395      2.000000
  0.030395  0.060790  0.030395      2.000000
  0.030395  0.030395  0.060790      2.000000
 -0.030395  0.060790  0.030395      2.000000
 -0.060790  0.030395  0.030395      2.000000
 -0.030395  0.030395  0.060790      2.000000
 -0.060790 -0.030395  0.030395      2.000000
 -0.030395 -0.060790  0.030395      2.000000
 -0.030395 -0.030395  0.060790      2.000000
  0.030395 -0.060790  0.030395      2.000000
  0.060790 -0.030395  0.030395      2.000000
  0.030395 -0.030395  0.060790      2.000000
  0.060790  0.060790  0.030395      2.000000
  0.030395  0.060790  0.060790      2.000000
  0.060790  0.030395  0.060790      2.000000
 -0.060790  0.060790  0.030395      2.000000
 -0.060790  0.030395  0.060790      2.000000
 -0.030395  0.060790  0.060790      2.000000
 -0.060790 -0.060790  0.030395      2.000000
 -0.030395 -0.060790  0.060790      2.000000
 -0.060790 -0.030395  0.060790      2.000000
  0.060790 -0.060790  0.030395      2.000000
  0.060790 -0.030395  0.060790      2.000000
  0.030395 -0.060790  0.060790      2.000000
  0.060790  0.060790  0.060790      2.000000
 -0.060790  0.060790  0.060790      2.000000
 -0.060790 -0.060790  0.060790      2.000000
  0.060790 -0.060790  0.060790      2.000000
 


--------------------------------------------------------------------------------------------------------




 Dimension of arrays:
   k-points           NKPTS =     63   k-points in BZ     NKDIM =     63   number of bands    NBANDS=    124
   number of dos      NEDOS =    301   number of ions     NIONS =     16
   non local maximal  LDIM  =      6   non local SUM 2l+1 LMDIM =     18
   total plane-waves  NPLWV =  46656
   max r-space proj   IRMAX =      1   max aug-charges    IRDMAX=   9546
   dimension x,y,z NGX =    36 NGY =   36 NGZ =   36
   dimension x,y,z NGXF=    72 NGYF=   72 NGZF=   72
   support grid    NGXF=    72 NGYF=   72 NGZF=   72
   ions per type =               6   4   4   2
   NGX,Y,Z   is equivalent  to a cutoff of   9.10,  9.10,  9.10 a.u.
   NGXF,Y,Z  is equivalent  to a cutoff of  18.19, 18.19, 18.19 a.u.

 SYSTEM =  unknown system                          
 POSCAR =  Nb-Mo-Ta-W alloy                        

 Startparameter for this run:
   NWRITE =      2    write-flag & timer
   PREC   = accura    normal or accurate (medium, high low for compatibility)
   ISTART =      0    job   : 0-new  1-cont  2-samecut
   ICHARG =      2    charge: 1-file 2-atom 10-const
   ISPIN  =      1    spin polarized calculation?
   LNONCOLLINEAR =      F non collinear calculations
   LSORBIT =      F    spin-orbit coupling
   INIWAV =      1    electr: 0-lowe 1-rand  2-diag
   LASPH  =      F    aspherical Exc in radial PAW
 Electronic Relaxation 1
   ENCUT  =  250.0 eV  18.37 Ry    4.29 a.u.   8.48  8.48  8.48*2*pi/ulx,y,z
   ENINI  =  250.0     initial cutoff
   ENAUG  =  455.7 eV  augmentation charge cutoff
   NELM   =     80;   NELMIN=  2; NELMDL= -5     # of ELM steps 
   EDIFF  = 0.1E-07   stopping-criterion for ELM
   LREAL  =      F    real-space projection
   NLSPLINE    = F    spline interpolate recip. space projectors
   LCOMPAT=      F    compatible to vasp.4.4
   GGA_COMPAT  = T    GGA compatible to vasp.4.4-vasp.4.6
   LMAXPAW     = -100 max onsite density
   LMAXMIX     =    2 max onsite mixed and CHGCAR
   VOSKOWN=      0    Vosko Wilk Nusair interpolation
   ROPT   =    0.00000   0.00000   0.00000   0.00000
 Ionic relaxation
   EDIFFG = -.1E-01   stopping-criterion for IOM
   NSW    =      0    number of steps for IOM
   NBLOCK =      1;   KBLOCK =      1    inner block; outer block 
   IBRION =     -1    ionic relax: 0-MD 1-quasi-New 2-CG
   NFREE  =      0    steps in history (QN), initial steepest desc. (CG)
   ISIF   =      2    stress and relaxation
   IWAVPR =     10    prediction:  0-non 1-charg 2-wave 3-comb
   ISYM   =      2    0-nonsym 1-usesym 2-fastsym
   LCORR  =      T    Harris-Foulkes like correction to forces

   POTIM  = 0.5000    time-step for ionic-motion
   TEIN   =    0.0    initial temperature
   TEBEG  =    0.0;   TEEND  =   0.0 temperature during run
   SMASS  =  -3.00    Nose mass-parameter (am)
   estimated Nose-frequenzy (Omega)   =  0.10E-29 period in steps = 0.13E+47 mass=  -0.989E-27a.u.
   SCALEE = 1.0000    scale energy and forces
   NPACO  =    256;   APACO  = 10.0  distance and # of slots for P.C.
   PSTRESS=    0.0 pullay stress

  Mass of Ions in am
   POMASS =  92.91 95.94180.95183.85
  Ionic Valenz
   ZVAL   =  13.00 14.00 11.00 14.00
  Atomic Wigner-Seitz radii
   RWIGS  =  -1.00 -1.00 -1.00 -1.00
  virtual crystal weights 
   VCA    =   1.00  1.00  1.00  1.00
   NELECT =     206.0000    total number of electrons
   NUPDOWN=      -1.0000    fix difference up-down

 DOS related values:
   EMIN   =  10.00;   EMAX   =-10.00  energy-range for DOS
   EFERMI =   0.00
   ISMEAR =     0;   SIGMA  =   0.02  broadening in eV -4-tet -1-fermi 0-gaus

 Electronic relaxation 2 (details)
   IALGO  =     38    algorithm
   LDIAG  =      T    sub-space diagonalisation (order eigenvalues)
   LSUBROT=      F    optimize rotation matrix (better conditioning)
   TURBO    =      0    0=normal 1=particle mesh
   IRESTART =      0    0=no restart 2=restart with 2 vectors
   NREBOOT  =      0    no. of reboots
   NMIN     =      0    reboot dimension
   EREF     =   0.00    reference energy to select bands
   IMIX   =      4    mixing-type and parameters
     AMIX     =   0.40;   BMIX     =  1.00
     AMIX_MAG =   1.60;   BMIX_MAG =  1.00
     AMIN     =   0.10
     WC   =   100.;   INIMIX=   1;  MIXPRE=   1;  MAXMIX= -45

 Intra band minimization:
   WEIMIN = 0.0000     energy-eigenvalue tresh-hold
   EBREAK =  0.20E-10  absolut break condition
   DEPER  =   0.30     relativ break condition  

   TIME   =   0.40     timestep for ELM

  volume/ion in A,a.u.               =      17.81       120.16
  Fermi-wavevector in a.u.,A,eV,Ry     =   1.469393  2.776750 29.376560  2.159116
  Thomas-Fermi vector in A             =   2.584776
 
 Write flags
   LWAVE        =      F    write WAVECAR
   LDOWNSAMPLE  =      F    k-point downsampling of WAVECAR
   LCHARG       =      F    write CHGCAR
   LVTOT        =      F    write LOCPOT, total local potential
   LVHAR        =      F    write LOCPOT, Hartree potential only
   LELF         =      F    write electronic localiz. function (ELF)
   LORBIT       =      0    0 simple, 1 ext, 2 COOP (PROOUT), +10 PAW based schemes


 Dipole corrections
   LMONO  =      F    monopole corrections only (constant potential shift)
   LDIPOL =      F    correct potential (dipole corrections)
   IDIPOL =      0    1-x, 2-y, 3-z, 4-all directions 
   EPSILON=  1.0000000 bulk dielectric constant

 Core level calculations are selected ICORELEVEL =  1
 Exchange correlation treatment:
   GGA     =    PE    GGA type
   LEXCH   =     8    internal setting for exchange type
   LIBXC   =     F    Libxc                    
   VOSKOWN =     0    Vosko Wilk Nusair interpolation
   LHFCALC =     F    Hartree Fock is set to
   LHFONE  =     F    Hartree Fock one center treatment
   AEXX    =    0.0000 exact exchange contribution

 Linear response parameters
   LEPSILON=     F    determine dielectric tensor
   LRPA    =     F    only Hartree local field effects (RPA)
   LNABLA  =     F    use nabla operator in PAW spheres
   LVEL    =     F    velocity operator in full k-point grid
   CSHIFT  =0.1000    complex shift for real part using Kramers Kronig
   OMEGAMAX=  -1.0    maximum frequency
   DEG_THRESHOLD= 0.2000000E-02 threshold for treating states as degnerate
   RTIME   =   -0.100 relaxation time in fs
  (WPLASMAI=    0.000 imaginary part of plasma frequency in eV, 0.658/RTIME)
   DFIELD  = 0.0000000 0.0000000 0.0000000 field for delta impulse in time
 
  Optional k-point grid parameters
   LKPOINTS_OPT  =     F    use optional k-point grid
   KPOINTS_OPT_MODE=     1    mode for optional k-point grid
 
 Orbital magnetization related:
   ORBITALMAG=     F  switch on orbital magnetization
   LCHIMAG   =     F  perturbation theory with respect to B field
   DQ        =  0.001000  dq finite difference perturbation B field
   LLRAUG    =     F  two centre corrections for induced B field



--------------------------------------------------------------------------------------------------------


 Static calculation
 charge density and potential will be updated during run
 non-spin polarized calculation
 Variant of blocked Davidson
 Davidson routine will perform the subspace rotation
 perform sub-space diagonalisation
    after iterative eigenvector-optimisation
 modified Broyden-mixing scheme, WC =      100.0
 initial mixing is a Kerker type mixing with AMIX =  0.4000 and BMIX =      1.0000
 Hartree-type preconditioning will be used
 using additional bands           21
 reciprocal scheme for non local part
 use partial core corrections
 calculate Harris-corrections to forces 
   (improved forces if not selfconsistent)
 use gradient corrections 
 use of overlap-Matrix (Vanderbilt PP)
 Gauss-broadening in eV      SIGMA  =   0.02


--------------------------------------------------------------------------------------------------------


  energy-cutoff  :      250.00
  volume of cell :      284.89
      direct lattice vectors                 reciprocal lattice vectors
     6.580000000  0.000000000  0.000000000     0.151975684  0.000000000  0.000000000
     0.000000000  6.580000000  0.000000000     0.000000000  0.151975684  0.000000000
     0.000000000  0.000000000  6.580000000     0.000000000  0.000000000  0.151975684

  length of vectors
     6.580000000  6.580000000  6.580000000     0.151975684  0.151975684  0.151975684


 
 k-points in units of 2pi/SCALE and weight: K-Spacing Value to Generate K-Mesh: 0.03
   0.00000000  0.00000000  0.00000000       0.008
   0.03039514  0.00000000  0.00000000       0.016
   0.00000000  0.03039514  0.00000000       0.016
   0.00000000  0.00000000  0.03039514       0.016
   0.06079027  0.00000000  0.00000000       0.016
   0.00000000  0.06079027  0.00000000       0.016
   0.00000000  0.00000000  0.06079027       0.016
   0.03039514  0.03039514  0.00000000       0.016
   0.00000000  0.03039514  0.03039514       0.016
   0.03039514  0.00000000  0.03039514       0.016
  -0.03039514  0.03039514  0.00000000       0.016
  -0.03039514  0.00000000  0.03039514       0.016
   0.00000000 -0.03039514  0.03039514       0.016
   0.06079027  0.03039514  0.00000000       0.016
   0.00000000  0.06079027  0.03039514       0.016
   0.03039514  0.00000000  0.06079027       0.016
  -0.03039514  0.06079027  0.00000000       0.016
  -0.06079027  0.00000000  0.03039514       0.016
   0.00000000  0.03039514  0.06079027       0.016
   0.00000000 -0.06079027  0.03039514       0.016
  -0.03039514  0.00000000  0.06079027       0.016
   0.06079027  0.00000000  0.03039514       0.016
   0.00000000 -0.03039514  0.06079027       0.016
   0.06079027 -0.03039514  0.00000000       0.016
   0.03039514  0.06079027  0.00000000       0.016
   0.06079027  0.06079027  0.00000000       0.016
   0.00000000  0.06079027  0.06079027       0.016
   0.06079027  0.00000000  0.06079027       0.016
  -0.06079027  0.06079027  0.00000000       0.016
  -0.06079027  0.00000000  0.06079027       0.016
   0.00000000 -0.06079027  0.06079027       0.016
   0.03039514  0.03039514  0.03039514       0.016
  -0.03039514  0.03039514  0.03039514       0.016
  -0.03039514 -0.03039514  0.03039514       0.016
   0.03039514 -0.03039514  0.03039514       0.016
   0.06079027  0.03039514  0.03039514       0.016
   0.03039514  0.06079027  0.03039514       0.016
   0.03039514  0.03039514  0.06079027       0.016
  -0.03039514  0.06079027  0.03039514       0.016
  -0.06079027  0.03039514  0.03039514       0.016
  -0.03039514  0.03039514  0.06079027       0.016
  -0.06079027 -0.03039514  0.03039514       0.016
  -0.03039514 -0.06079027  0.03039514       0.016
  -0.03039514 -0.03039514  0.06079027       0.016
   0.03039514 -0.06079027  0.03039514       0.016
   0.06079027 -0.03039514  0.03039514       0.016
   0.03039514 -0.03039514  0.06079027       0.016
   0.06079027  0.06079027  0.03039514       0.016
   0.03039514  0.06079027  0.06079027       0.016
   0.06079027  0.03039514  0.06079027       0.016
  -0.06079027  0.06079027  0.03039514       0.016
  -0.06079027  0.03039514  0.06079027       0.016
  -0.03039514  0.06079027  0.06079027       0.016
  -0.06079027 -0.06079027  0.03039514       0.016
  -0.03039514 -0.06079027  0.06079027       0.016
  -0.06079027 -0.03039514  0.06079027       0.016
   0.06079027 -0.06079027  0.03039514       0.016
   0.06079027 -0.03039514  0.06079027       0.016
   0.03039514 -0.06079027  0.06079027       0.016
   0.06079027  0.06079027  0.06079027       0.016
  -0.06079027  0.06079027  0.06079027       0.016
  -0.06079027 -0.06079027  0.06079027       0.016
   0.06079027 -0.06079027  0.06079027       0.016
 
 k-points in reciprocal lattice and weights: K-Spacing Value to Generate K-Mesh: 0.03
   0.00000000  0.00000000  0.00000000       0.008
   0.20000000  0.00000000  0.00000000       0.016
   0.00000000  0.20000000  0.00000000       0.016
   0.00000000  0.00000000  0.20000000       0.016
   0.40000000  0.00000000  0.00000000       0.016
   0.00000000  0.40000000  0.00000000       0.016
   0.00000000  0.00000000  0.40000000       0.016
   0.20000000  0.20000000  0.00000000       0.016
   0.00000000  0.20000000  0.20000000       0.016
   0.20000000  0.00000000  0.20000000       0.016
  -0.20000000  0.20000000  0.00000000       0.016
  -0.20000000  0.00000000  0.20000000       0.016
   0.00000000 -0.20000000  0.20000000       0.016
   0.40000000  0.20000000  0.00000000       0.016
   0.00000000  0.40000000  0.20000000       0.016
   0.20000000  0.00000000  0.40000000       0.016
  -0.20000000  0.40000000  0.00000000       0.016
  -0.40000000  0.00000000  0.20000000       0.016
   0.00000000  0.20000000  0.40000000       0.016
   0.00000000 -0.40000000  0.20000000       0.016
  -0.20000000  0.00000000  0.40000000       0.016
   0.40000000  0.00000000  0.20000000       0.016
   0.00000000 -0.20000000  0.40000000       0.016
   0.40000000 -0.20000000  0.00000000       0.016
   0.20000000  0.40000000  0.00000000       0.016
   0.40000000  0.40000000  0.00000000       0.016
   0.00000000  0.40000000  0.40000000       0.016
   0.40000000  0.00000000  0.40000000       0.016
  -0.40000000  0.40000000  0.00000000       0.016
  -0.40000000  0.00000000  0.40000000       0.016
   0.00000000 -0.40000000  0.40000000       0.016
   0.20000000  0.20000000  0.20000000       0.016
  -0.20000000  0.20000000  0.20000000       0.016
  -0.20000000 -0.20000000  0.20000000       0.016
   0.20000000 -0.20000000  0.20000000       0.016
   0.40000000  0.20000000  0.20000000       0.016
   0.20000000  0.40000000  0.20000000       0.016
   0.20000000  0.20000000  0.40000000       0.016
  -0.20000000  0.40000000  0.20000000       0.016
  -0.40000000  0.20000000  0.20000000       0.016
  -0.20000000  0.20000000  0.40000000       0.016
  -0.40000000 -0.20000000  0.20000000       0.016
  -0.20000000 -0.40000000  0.20000000       0.016
  -0.20000000 -0.20000000  0.40000000       0.016
   0.20000000 -0.40000000  0.20000000       0.016
   0.40000000 -0.20000000  0.20000000       0.016
   0.20000000 -0.20000000  0.40000000       0.016
   0.40000000  0.40000000  0.20000000       0.016
   0.20000000  0.40000000  0.40000000       0.016
   0.40000000  0.20000000  0.40000000       0.016
  -0.40000000  0.40000000  0.20000000       0.016
  -0.40000000  0.20000000  0.40000000       0.016
  -0.20000000  0.40000000  0.40000000       0.016
  -0.40000000 -0.40000000  0.20000000       0.016
  -0.20000000 -0.40000000  0.40000000       0.016
  -0.40000000 -0.20000000  0.40000000       0.016
   0.40000000 -0.40000000  0.20000000       0.016
   0.40000000 -0.20000000  0.40000000       0.016
   0.20000000 -0.40000000  0.40000000       0.016
   0.40000000  0.40000000  0.40000000       0.016
  -0.40000000  0.40000000  0.40000000       0.016
  -0.40000000 -0.40000000  0.40000000       0.016
   0.40000000 -0.40000000  0.40000000       0.016
 
 position of ions in fractional coordinates (direct lattice) 
   0.25000000  0.25000000  0.75000000
   0.00000000  0.50000000  0.00000000
   0.50000000  0.50000000  0.50000000
   0.00000000  0.00000000  0.00000000
   0.75000000  0.25000000  0.75000000
   0.75000000  0.75000000  0.75000000
   0.50000000  0.00000000  0.50000000
   0.50000000  0.50000000  0.00000000
   0.25000000  0.75000000  0.25000000
   0.50000000  0.00000000  0.00000000
   0.00000000  0.00000000  0.50000000
   0.00000000  0.50000000  0.50000000
   0.75000000  0.75000000  0.25000000
   0.75000000  0.25000000  0.25000000
   0.25000000  0.75000000  0.75000000
   0.25000000  0.25000000  0.25000000
 
 position of ions in cartesian coordinates  (Angst):
   1.64500000  1.64500000  4.93500000
   0.00000000  3.29000000  0.00000000
   3.29000000  3.29000000  3.29000000
   0.00000000  0.00000000  0.00000000
   4.93500000  1.64500000  4.93500000
   4.93500000  4.93500000  4.93500000
   3.29000000  0.00000000  3.29000000
   3.29000000  3.29000000  0.00000000
   1.64500000  4.93500000  1.64500000
   3.29000000  0.00000000  0.00000000
   0.00000000  0.00000000  3.29000000
   0.00000000  3.29000000  3.29000000
   4.93500000  4.93500000  1.64500000
   4.93500000  1.64500000  1.64500000
   1.64500000  4.93500000  4.93500000
   1.64500000  1.64500000  1.64500000
 


--------------------------------------------------------------------------------------------------------


 k-point   1 :   0.0000 0.0000 0.0000  plane waves:    2517
 k-point   2 :   0.2000 0.0000 0.0000  plane waves:    2545
 k-point   3 :   0.0000 0.2000 0.0000  plane waves:    2545
 k-point   4 :   0.0000 0.0000 0.2000  plane waves:    2545
 k-point   5 :   0.4000 0.0000 0.0000  plane waves:    2569
 k-point   6 :   0.0000 0.4000 0.0000  plane waves:    2569
 k-point   7 :   0.0000 0.0000 0.4000  plane waves:    2569
 k-point   8 :   0.2000 0.2000 0.0000  plane waves:    2562
 k-point   9 :   0.0000 0.2000 0.2000  plane waves:    2562
 k-point  10 :   0.2000 0.0000 0.2000  plane waves:    2562
 k-point  11 :  -0.2000 0.2000 0.0000  plane waves:    2562
 k-point  12 :  -0.2000 0.0000 0.2000  plane waves:    2562
 k-point  13 :   0.0000-0.2000 0.2000  plane waves:    2562
 k-point  14 :   0.4000 0.2000 0.0000  plane waves:    2566
 k-point  15 :   0.0000 0.4000 0.2000  plane waves:    2566
 k-point  16 :   0.2000 0.0000 0.4000  plane waves:    2566
 k-point  17 :  -0.2000 0.4000 0.0000  plane waves:    2566
 k-point  18 :  -0.4000 0.0000 0.2000  plane waves:    2566
 k-point  19 :   0.0000 0.2000 0.4000  plane waves:    2566
 k-point  20 :   0.0000-0.4000 0.2000  plane waves:    2566
 k-point  21 :  -0.2000 0.0000 0.4000  plane waves:    2566
 k-point  22 :   0.4000 0.0000 0.2000  plane waves:    2566
 k-point  23 :   0.0000-0.2000 0.4000  plane waves:    2566
 k-point  24 :   0.4000-0.2000 0.0000  plane waves:    2566
 k-point  25 :   0.2000 0.4000 0.0000  plane waves:    2566
 k-point  26 :   0.4000 0.4000 0.0000  plane waves:    2570
 k-point  27 :   0.0000 0.4000 0.4000  plane waves:    2570
 k-point  28 :   0.4000 0.0000 0.4000  plane waves:    2570
 k-point  29 :  -0.4000 0.4000 0.0000  plane waves:    2570
 k-point  30 :  -0.4000 0.0000 0.4000  plane waves:    2570
 k-point  31 :   0.0000-0.4000 0.4000  plane waves:    2570
 k-point  32 :   0.2000 0.2000 0.2000  plane waves:    2572
 k-point  33 :  -0.2000 0.2000 0.2000  plane waves:    2572
 k-point  34 :  -0.2000-0.2000 0.2000  plane waves:    2572
 k-point  35 :   0.2000-0.2000 0.2000  plane waves:    2572
 k-point  36 :   0.4000 0.2000 0.2000  plane waves:    2546
 k-point  37 :   0.2000 0.4000 0.2000  plane waves:    2546
 k-point  38 :   0.2000 0.2000 0.4000  plane waves:    2546
 k-point  39 :  -0.2000 0.4000 0.2000  plane waves:    2546
 k-point  40 :  -0.4000 0.2000 0.2000  plane waves:    2546
 k-point  41 :  -0.2000 0.2000 0.4000  plane waves:    2546
 k-point  42 :  -0.4000-0.2000 0.2000  plane waves:    2546
 k-point  43 :  -0.2000-0.4000 0.2000  plane waves:    2546
 k-point  44 :  -0.2000-0.2000 0.4000  plane waves:    2546
 k-point  45 :   0.2000-0.4000 0.2000  plane waves:    2546
 k-point  46 :   0.4000-0.2000 0.2000  plane waves:    2546
 k-point  47 :   0.2000-0.2000 0.4000  plane waves:    2546
 k-point  48 :   0.4000 0.4000 0.2000  plane waves:    2549
 k-point  49 :   0.2000 0.4000 0.4000  plane waves:    2549
 k-point  50 :   0.4000 0.2000 0.4000  plane waves:    2549
 k-point  51 :  -0.4000 0.4000 0.2000  plane waves:    2549
 k-point  52 :  -0.4000 0.2000 0.4000  plane waves:    2549
 k-point  53 :  -0.2000 0.4000 0.4000  plane waves:    2549
 k-point  54 :  -0.4000-0.4000 0.2000  plane waves:    2549
 k-point  55 :  -0.2000-0.4000 0.4000  plane waves:    2549
 k-point  56 :  -0.4000-0.2000 0.4000  plane waves:    2549
 k-point  57 :   0.4000-0.4000 0.2000  plane waves:    2549
 k-point  58 :   0.4000-0.2000 0.4000  plane waves:    2549
 k-point  59 :   0.2000-0.4000 0.4000  plane waves:    2549
 k-point  60 :   0.4000 0.4000 0.4000  plane waves:    2533
 k-point  61 :  -0.4000 0.4000 0.4000  plane waves:    2533
 k-point  62 :  -0.4000-0.4000 0.4000  plane waves:    2533
 k-point  63 :   0.4000-0.4000 0.4000  plane waves:    2533

 maximum and minimum number of plane-waves per node :       235      194

 maximum number of plane-waves:      2572
 maximum index in each direction: 
   IXMAX=    8   IYMAX=    8   IZMAX=    8
   IXMIN=   -8   IYMIN=   -8   IZMIN=   -8


 parallel 3D FFT for wavefunctions:
    minimum data exchange during FFTs selected (reduces bandwidth)
 parallel 3D FFT for charge:
    minimum data exchange during FFTs selected (reduces bandwidth)


 total amount of memory used by VASP MPI-rank0    47987. kBytes
=======================================================================

   base      :      30000. kBytes
   nonl-proj :       8332. kBytes
   fftplans  :        456. kBytes
   grid      :        919. kBytes
   one-center:         31. kBytes
   wavefun   :       8249. kBytes
 
     INWAV:  cpu time      0.0000: real time      0.0002
 Broyden mixing: mesh for mixing (old mesh)
   NGX = 17   NGY = 17   NGZ = 17
  (NGX  = 72   NGY  = 72   NGZ  = 72)
  gives a total of   4913 points

 initial charge density was supplied:
 charge density of overlapping atoms calculated
 number of electron     206.0000000 magnetization 
 keeping initial charge density in first step


--------------------------------------------------------------------------------------------------------


 Maximum index for augmentation-charges          517 (set IRDMAX)


--------------------------------------------------------------------------------------------------------


 First call to EWALD:  gamma=   0.269
 Maximum number of real-space cells 3x 3x 3
 Maximum number of reciprocal cells 3x 3x 3

    FEWALD:  cpu time      0.0012: real time      0.0012


--------------------------------------- Iteration      1(   1)  ---------------------------------------


    POTLOK:  cpu time      0.0120: real time      0.1009
    SETDIJ:  cpu time      0.0026: real time      0.0027
     EDDAV:  cpu time      3.0418: real time      3.0542
       DOS:  cpu time      0.0045: real time      0.0045
    --------------------------------------------
      LOOP:  cpu time      3.0609: real time      3.1624

 eigenvalue-minimisations  : 15984
 total energy-change (2. order) : 0.1848149E+04  (-0.8098529E+04)
 number of electron     206.0000000 magnetization 
 augmentation part      206.0000000 magnetization 

 Free energy of the ion-electron system (eV)
  ---------------------------------------------------
  alpha Z        PSCENC =      1728.39355338
  Ewald energy   TEWEN  =    -21167.68168581
  -Hartree energ DENC   =     -3967.84804636
  -exchange      EXHF   =         0.00000000
  -V(xc)+E(xc)   XCENC  =       815.76271283
  PAW double counting   =     19604.77939702   -19305.38174492
  entropy T*S    EENTRO =        -0.00120446
  eigenvalues    EBANDS =      -558.11054250
  atomic energy  EATOM  =     24698.23641207
  Solvation  Ediel_sol  =         0.00000000
  ---------------------------------------------------
  free energy    TOTEN  =      1848.14885123 eV

  energy without entropy =     1848.15005570  energy(sigma->0) =     1848.14945347


--------------------------------------------------------------------------------------------------------




--------------------------------------- Iteration      1(   2)  ---------------------------------------


     EDDAV:  cpu time      3.1310: real time      3.1438
       DOS:  cpu time      0.0045: real time      0.0046
    --------------------------------------------
      LOOP:  cpu time      3.1355: real time      3.1484

 eigenvalue-minimisations  : 16420
 total energy-change (2. order) :-0.1865587E+04  (-0.1804408E+04)
 number of electron     206.0000000 magnetization 
 augmentation part      206.0000000 magnetization 

 Free energy of the ion-electron system (eV)
  ---------------------------------------------------
  alpha Z        PSCENC =      1728.39355338
  Ewald energy   TEWEN  =    -21167.68168581
  -Hartree energ DENC   =     -3967.84804636
  -exchange      EXHF   =         0.00000000
  -V(xc)+E(xc)   XCENC  =       815.76271283
  PAW double counting   =     19604.77939702   -19305.38174492
  entropy T*S    EENTRO =        -0.00121279
  eigenvalues    EBANDS =     -2423.69795848
  atomic energy  EATOM  =     24698.23641207
  Solvation  Ediel_sol  =         0.00000000
  ---------------------------------------------------
  free energy    TOTEN  =       -17.43857307 eV

  energy without entropy =      -17.43736028  energy(sigma->0) =      -17.43796668


--------------------------------------------------------------------------------------------------------




--------------------------------------- Iteration      1(   3)  ---------------------------------------


     EDDAV:  cpu time      4.2872: real time      4.3043
       DOS:  cpu time      0.0050: real time      0.0050
    --------------------------------------------
      LOOP:  cpu time      4.2922: real time      4.3093

 eigenvalue-minimisations  : 25072
 total energy-change (2. order) :-0.1591870E+03  (-0.1508501E+03)
 number of electron     206.0000000 magnetization 
 augmentation part      206.0000000 magnetization 

 Free energy of the ion-electron system (eV)
  ---------------------------------------------------
  alpha Z        PSCENC =      1728.39355338
  Ewald energy   TEWEN  =    -21167.68168581
  -Hartree energ DENC   =     -3967.84804636
  -exchange      EXHF   =         0.00000000
  -V(xc)+E(xc)   XCENC  =       815.76271283
  PAW double counting   =     19604.77939702   -19305.38174492
  entropy T*S    EENTRO =        -0.00423588
  eigenvalues    EBANDS =     -2582.88189531
  atomic energy  EATOM  =     24698.23641207
  Solvation  Ediel_sol  =         0.00000000
  ---------------------------------------------------
  free energy    TOTEN  =      -176.62553298 eV

  energy without entropy =     -176.62129710  energy(sigma->0) =     -176.62341504


--------------------------------------------------------------------------------------------------------




--------------------------------------- Iteration      1(   4)  ---------------------------------------


     EDDAV:  cpu time      4.1830: real time      4.1998
       DOS:  cpu time      0.0044: real time      0.0044
    --------------------------------------------
      LOOP:  cpu time      4.1874: real time      4.2042

 eigenvalue-minimisations  : 24624
 total energy-change (2. order) :-0.1070315E+02  (-0.1038099E+02)
 number of electron     206.0000000 magnetization 
 augmentation part      206.0000000 magnetization 

 Free energy of the ion-electron system (eV)
  ---------------------------------------------------
  alpha Z        PSCENC =      1728.39355338
  Ewald energy   TEWEN  =    -21167.68168581
  -Hartree energ DENC   =     -3967.84804636
  -exchange      EXHF   =         0.00000000
  -V(xc)+E(xc)   XCENC  =       815.76271283
  PAW double counting   =     19604.77939702   -19305.38174492
  entropy T*S    EENTRO =        -0.00287969
  eigenvalues    EBANDS =     -2593.58639819
  atomic energy  EATOM  =     24698.23641207
  Solvation  Ediel_sol  =         0.00000000
  ---------------------------------------------------
  free energy    TOTEN  =      -187.32867968 eV

  energy without entropy =     -187.32579999  energy(sigma->0) =     -187.32723983


--------------------------------------------------------------------------------------------------------




--------------------------------------- Iteration      1(   5)  ---------------------------------------


     EDDAV:  cpu time      4.0724: real time      4.7114
       DOS:  cpu time      0.0060: real time      0.0060
    CHARGE:  cpu time      0.0941: real time      0.0952
    MIXING:  cpu time      0.0003: real time      0.0003
    --------------------------------------------
      LOOP:  cpu time      4.1728: real time      4.8130

 eigenvalue-minimisations  : 23536
 total energy-change (2. order) :-0.6106966E+00  (-0.6055748E+00)
 number of electron     205.9999800 magnetization 
 augmentation part       37.3897397 magnetization 

 Broyden mixing:
  rms(total) = 0.49438E+01    rms(broyden)= 0.49427E+01
  rms(prec ) = 0.55019E+01
  weight for this iteration     100.00

 Free energy of the ion-electron system (eV)
  ---------------------------------------------------
  alpha Z        PSCENC =      1728.39355338
  Ewald energy   TEWEN  =    -21167.68168581
  -Hartree energ DENC   =     -3967.84804636
  -exchange      EXHF   =         0.00000000
  -V(xc)+E(xc)   XCENC  =       815.76271283
  PAW double counting   =     19604.77939702   -19305.38174492
  entropy T*S    EENTRO =        -0.00278149
  eigenvalues    EBANDS =     -2594.19719302
  atomic energy  EATOM  =     24698.23641207
  Solvation  Ediel_sol  =         0.00000000
  ---------------------------------------------------
  free energy    TOTEN  =      -187.93937631 eV

  energy without entropy =     -187.93659482  energy(sigma->0) =     -187.93798557


--------------------------------------------------------------------------------------------------------




--------------------------------------- Iteration      1(   6)  ---------------------------------------


    POTLOK:  cpu time      0.0059: real time      0.0061
    SETDIJ:  cpu time      0.0018: real time      0.0018
     EDDAV:  cpu time      3.5270: real time      3.5429
       DOS:  cpu time      0.0047: real time      0.0048
    CHARGE:  cpu time      0.0881: real time      0.0884
    MIXING:  cpu time      0.0003: real time      0.0003
    --------------------------------------------
      LOOP:  cpu time      3.6279: real time      3.6443

 eigenvalue-minimisations  : 18840
 total energy-change (2. order) : 0.6666588E+01  (-0.2319438E+01)
 number of electron     205.9999785 magnetization 
 augmentation part       39.1535872 magnetization 

 Broyden mixing:
  rms(total) = 0.18720E+01    rms(broyden)= 0.18717E+01
  rms(prec ) = 0.25918E+01
  weight for this iteration     100.00

 eigenvalues of (default mixing * dielectric matrix)
  average eigenvalue GAMMA=   1.3900
  1.3900

 Free energy of the ion-electron system (eV)
  ---------------------------------------------------
  alpha Z        PSCENC =      1728.39355338
  Ewald energy   TEWEN  =    -21167.68168581
  -Hartree energ DENC   =     -3752.30092057
  -exchange      EXHF   =         0.00000000
  -V(xc)+E(xc)   XCENC  =       805.05426044
  PAW double counting   =     23036.81089844   -22759.34027429
  entropy T*S    EENTRO =        -0.00371481
  eigenvalues    EBANDS =     -2770.44131747
  atomic energy  EATOM  =     24698.23641207
  Solvation  Ediel_sol  =         0.00000000
  ---------------------------------------------------
  free energy    TOTEN  =      -181.27278862 eV

  energy without entropy =     -181.26907382  energy(sigma->0) =     -181.27093122


--------------------------------------------------------------------------------------------------------




--------------------------------------- Iteration      1(   7)  ---------------------------------------


    POTLOK:  cpu time      0.0046: real time      0.0047
    SETDIJ:  cpu time      0.0018: real time      0.0018
     EDDAV:  cpu time      4.0036: real time      4.0194
       DOS:  cpu time      0.0047: real time      0.0047
    CHARGE:  cpu time      0.0859: real time      0.0862
    MIXING:  cpu time      0.0003: real time      0.0003
    --------------------------------------------
      LOOP:  cpu time      4.1009: real time      4.1171

 eigenvalue-minimisations  : 23208
 total energy-change (2. order) :-0.6511711E+00  (-0.2206369E+01)
 number of electron     205.9999796 magnetization 
 augmentation part       38.6476218 magnetization 

 Broyden mixing:
  rms(total) = 0.13244E+01    rms(broyden)= 0.13240E+01
  rms(prec ) = 0.29867E+01
  weight for this iteration     100.00

 eigenvalues of (default mixing * dielectric matrix)
  average eigenvalue GAMMA=   1.0580
  1.6237  0.4924

 Free energy of the ion-electron system (eV)
  ---------------------------------------------------
  alpha Z        PSCENC =      1728.39355338
  Ewald energy   TEWEN  =    -21167.68168581
  -Hartree energ DENC   =     -3709.80864048
  -exchange      EXHF   =         0.00000000
  -V(xc)+E(xc)   XCENC  =       802.23048981
  PAW double counting   =     24883.46008227   -24609.99131399
  entropy T*S    EENTRO =        -0.00472973
  eigenvalues    EBANDS =     -2806.75812721
  atomic energy  EATOM  =     24698.23641207
  Solvation  Ediel_sol  =         0.00000000
  ---------------------------------------------------
  free energy    TOTEN  =      -181.92395971 eV

  energy without entropy =     -181.91922997  energy(sigma->0) =     -181.92159484


--------------------------------------------------------------------------------------------------------




--------------------------------------- Iteration      1(   8)  ---------------------------------------


    POTLOK:  cpu time      0.0046: real time      0.0048
    SETDIJ:  cpu time      0.0017: real time      0.0017
     EDDAV:  cpu time      3.4784: real time      3.4930
       DOS:  cpu time      0.0050: real time      0.0991
    CHARGE:  cpu time      0.0884: real time      0.0887
    MIXING:  cpu time      0.0003: real time      0.0003
    --------------------------------------------
      LOOP:  cpu time      3.5784: real time      3.6875

 eigenvalue-minimisations  : 19392
 total energy-change (2. order) : 0.3084159E+01  (-0.1053801E+01)
 number of electron     205.9999792 magnetization 
 augmentation part       39.2669609 magnetization 

 Broyden mixing:
  rms(total) = 0.38698E+00    rms(broyden)= 0.38599E+00
  rms(prec ) = 0.52541E+00
  weight for this iteration     100.00

 eigenvalues of (default mixing * dielectric matrix)
  average eigenvalue GAMMA=   1.1095
  1.7741  1.1484  0.4059

 Free energy of the ion-electron system (eV)
  ---------------------------------------------------
  alpha Z        PSCENC =      1728.39355338
  Ewald energy   TEWEN  =    -21167.68168581
  -Hartree energ DENC   =     -3654.33947534
  -exchange      EXHF   =         0.00000000
  -V(xc)+E(xc)   XCENC  =       799.74801384
  PAW double counting   =     26003.70978080   -25735.39134728
  entropy T*S    EENTRO =        -0.00237318
  eigenvalues    EBANDS =     -2851.51267926
  atomic energy  EATOM  =     24698.23641207
  Solvation  Ediel_sol  =         0.00000000
  ---------------------------------------------------
  free energy    TOTEN  =      -178.83980080 eV

  energy without entropy =     -178.83742762  energy(sigma->0) =     -178.83861421


--------------------------------------------------------------------------------------------------------




--------------------------------------- Iteration      1(   9)  ---------------------------------------


    POTLOK:  cpu time      0.0046: real time      0.0048
    SETDIJ:  cpu time      0.0017: real time      0.0018
     EDDAV:  cpu time      3.8546: real time      3.8699
       DOS:  cpu time      0.0050: real time      0.0050
    CHARGE:  cpu time      0.0912: real time      0.0916
    MIXING:  cpu time      0.0003: real time      0.0003
    --------------------------------------------
      LOOP:  cpu time      3.9573: real time      3.9732

 eigenvalue-minimisations  : 22144
 total energy-change (2. order) :-0.8483060E-01  (-0.1561208E+00)
 number of electron     205.9999792 magnetization 
 augmentation part       39.2519962 magnetization 

 Broyden mixing:
  rms(total) = 0.29590E+00    rms(broyden)= 0.29579E+00
  rms(prec ) = 0.43410E+00
  weight for this iteration     100.00

 eigenvalues of (default mixing * dielectric matrix)
  average eigenvalue GAMMA=   1.1681
  2.1144  1.6050  0.5677  0.3854

 Free energy of the ion-electron system (eV)
  ---------------------------------------------------
  alpha Z        PSCENC =      1728.39355338
  Ewald energy   TEWEN  =    -21167.68168581
  -Hartree energ DENC   =     -3651.05892209
  -exchange      EXHF   =         0.00000000
  -V(xc)+E(xc)   XCENC  =       799.60023361
  PAW double counting   =     26327.28872582   -26057.66106864
  entropy T*S    EENTRO =        -0.00226670
  eigenvalues    EBANDS =     -2856.03961303
  atomic energy  EATOM  =     24698.23641207
  Solvation  Ediel_sol  =         0.00000000
  ---------------------------------------------------
  free energy    TOTEN  =      -178.92463140 eV

  energy without entropy =     -178.92236470  energy(sigma->0) =     -178.92349805


--------------------------------------------------------------------------------------------------------




--------------------------------------- Iteration      1(  10)  ---------------------------------------


    POTLOK:  cpu time      0.0045: real time      0.0047
    SETDIJ:  cpu time      0.0017: real time      0.0017
     EDDAV:  cpu time      3.6415: real time      3.6561
       DOS:  cpu time      0.0046: real time      0.0046
    CHARGE:  cpu time      0.0861: real time      0.0864
    MIXING:  cpu time      0.0003: real time      0.0003
    --------------------------------------------
      LOOP:  cpu time      3.7388: real time      3.7539

 eigenvalue-minimisations  : 20632
 total energy-change (2. order) : 0.2569463E-01  (-0.3736282E-01)
 number of electron     205.9999793 magnetization 
 augmentation part       39.1880799 magnetization 

 Broyden mixing:
  rms(total) = 0.13054E+00    rms(broyden)= 0.13045E+00
  rms(prec ) = 0.21434E+00
  weight for this iteration     100.00

 eigenvalues of (default mixing * dielectric matrix)
  average eigenvalue GAMMA=   1.1771
  2.6067  1.6667  0.8131  0.3994  0.3994

 Free energy of the ion-electron system (eV)
  ---------------------------------------------------
  alpha Z        PSCENC =      1728.39355338
  Ewald energy   TEWEN  =    -21167.68168581
  -Hartree energ DENC   =     -3654.58428044
  -exchange      EXHF   =         0.00000000
  -V(xc)+E(xc)   XCENC  =       799.72452445
  PAW double counting   =     26575.26718410   -26302.89039324
  entropy T*S    EENTRO =        -0.00238594
  eigenvalues    EBANDS =     -2855.36186533
  atomic energy  EATOM  =     24698.23641207
  Solvation  Ediel_sol  =         0.00000000
  ---------------------------------------------------
  free energy    TOTEN  =      -178.89893677 eV

  energy without entropy =     -178.89655083  energy(sigma->0) =     -178.89774380


--------------------------------------------------------------------------------------------------------




--------------------------------------- Iteration      1(  11)  ---------------------------------------


    POTLOK:  cpu time      0.0046: real time      0.0047
    SETDIJ:  cpu time      0.0018: real time      0.0018
     EDDAV:  cpu time      3.7190: real time      3.7336
       DOS:  cpu time      0.0047: real time      0.0047
    CHARGE:  cpu time      0.0859: real time      0.0862
    MIXING:  cpu time      0.0003: real time      0.0003
    --------------------------------------------
      LOOP:  cpu time      3.8163: real time      3.8313

 eigenvalue-minimisations  : 21208
 total energy-change (2. order) : 0.4689192E-02  (-0.9899913E-02)
 number of electron     205.9999793 magnetization 
 augmentation part       39.1535091 magnetization 

 Broyden mixing:
  rms(total) = 0.46174E-01    rms(broyden)= 0.46099E-01
  rms(prec ) = 0.11160E+00
  weight for this iteration     100.00

 eigenvalues of (default mixing * dielectric matrix)
  average eigenvalue GAMMA=   1.0768
  2.5409  1.6764  0.8617  0.5914  0.4036  0.3867

 Free energy of the ion-electron system (eV)
  ---------------------------------------------------
  alpha Z        PSCENC =      1728.39355338
  Ewald energy   TEWEN  =    -21167.68168581
  -Hartree energ DENC   =     -3657.74493081
  -exchange      EXHF   =         0.00000000
  -V(xc)+E(xc)   XCENC  =       799.86757720
  PAW double counting   =     26695.59711570   -26421.05257658
  entropy T*S    EENTRO =        -0.00230090
  eigenvalues    EBANDS =     -2854.50741183
  atomic energy  EATOM  =     24698.23641207
  Solvation  Ediel_sol  =         0.00000000
  ---------------------------------------------------
  free energy    TOTEN  =      -178.89424758 eV

  energy without entropy =     -178.89194668  energy(sigma->0) =     -178.89309713


--------------------------------------------------------------------------------------------------------




--------------------------------------- Iteration      1(  12)  ---------------------------------------


    POTLOK:  cpu time      0.0046: real time      0.0047
    SETDIJ:  cpu time      0.0017: real time      0.0017
     EDDAV:  cpu time      3.6804: real time      3.6945
       DOS:  cpu time      0.0045: real time      0.0045
    CHARGE:  cpu time      0.0860: real time      0.0862
    MIXING:  cpu time      0.0004: real time      0.0004
    --------------------------------------------
      LOOP:  cpu time      3.7775: real time      3.7921

 eigenvalue-minimisations  : 20856
[...]
     25     -25.1255      2.00000
     26     -25.0989      2.00000
     27     -25.0837      2.00000
     28     -25.0590      2.00000
     29     -24.9879      2.00000
     30     -24.9828      2.00000
     31     -24.5687      2.00000
     32     -24.5560      2.00000
     33     -24.4913      2.00000
     34     -24.4256      2.00000
     35     -24.3871      2.00000
     36     -24.3616      2.00000
     37     -24.3077      2.00000
     38     -24.2815      2.00000
     39     -24.1837      2.00000
     40     -24.1603      2.00000
     41     -24.0790      2.00000
     42     -24.0593      2.00000
     43     -21.3759      2.00000
     44     -21.3201      2.00000
     45     -21.2801      2.00000
     46     -21.2217      2.00000
     47     -21.1885      2.00000
     48     -21.0769      2.00000
     49     -20.9924      2.00000
     50     -20.9818      2.00000
     51     -20.9636      2.00000
     52     -20.9433      2.00000
     53     -20.9174      2.00000
     54     -20.8933      2.00000
     55     -20.8111      2.00000
     56     -20.7324      2.00000
     57     -20.7009      2.00000
     58     -20.6595      2.00000
     59     -20.6246      2.00000
     60     -20.5862      2.00000
     61       4.3550      2.00000
     62       4.8912      2.00000
     63       5.1246      2.00000
     64       5.3485      2.00000
     65       5.7177      2.00000
     66       5.8812      2.00000
     67       6.0872      2.00000
     68       6.6170      2.00000
     69       6.8244      2.00000
     70       6.8471      2.00000
     71       6.8779      2.00000
     72       6.9153      2.00000
     73       6.9282      2.00000
     74       7.0231      2.00000
     75       7.0748      2.00000
     76       7.1554      2.00000
     77       7.1637      2.00000
     78       7.2401      2.00000
     79       7.2519      2.00000
     80       7.2679      2.00000
     81       7.5409      2.00000
     82       7.6191      2.00000
     83       7.6930      2.00000
     84       7.7546      2.00000
     85       7.7872      2.00000
     86       7.8060      2.00000
     87       7.8294      2.00000
     88       7.9005      2.00000
     89       7.9201      2.00000
     90       7.9381      2.00000
     91       7.9627      2.00000
     92       8.0093      2.00000
     93       8.0319      2.00000
     94       8.0431      2.00000
     95       8.0817      2.00000
     96       8.1203      2.00000
     97       8.1362      2.00000
     98       8.1547      2.00000
     99       8.1812      2.00000
    100       8.2631      2.00000
    101       8.2839      2.00000
    102       8.3047      2.00000
    103       8.3567      2.00000
    104       8.3812      2.00000
    105       8.4342      2.00000
    106       8.4785      2.00000
    107       8.5176      2.00000
    108       8.9467      2.00000
    109      11.4558      0.00000
    110      11.5597      0.00000
    111      11.6892      0.00000
    112      11.7410      0.00000
    113      11.8438      0.00000
    114      11.8959      0.00000
    115      11.9768      0.00000
    116      12.0027      0.00000
    117      12.0640      0.00000
    118      12.1177      0.00000
    119      12.1947      0.00000
    120      12.2437      0.00000
    121      12.3704      0.00000
    122      12.4426      0.00000
    123      12.5056      0.00000
    124      12.5461      0.00000

 k-point    63 :       0.4000   -0.4000    0.4000
  band No.  band energies     occupation 
      1     -64.0928      2.00000
      2     -64.0572      2.00000
      3     -51.0876      2.00000
      4     -51.0167      2.00000
      5     -50.9821      2.00000
      6     -50.9619      2.00000
      7     -44.9313      2.00000
      8     -44.9077      2.00000
      9     -44.8788      2.00000
     10     -44.8270      2.00000
     11     -44.8070      2.00000
     12     -44.7882      2.00000
     13     -28.3217      2.00000
     14     -28.3112      2.00000
     15     -28.3012      2.00000
     16     -28.2913      2.00000
     17     -28.2772      2.00000
     18     -28.2640      2.00000
     19     -25.3598      2.00000
     20     -25.3575      2.00000
     21     -25.2629      2.00000
     22     -25.1869      2.00000
     23     -25.1532      2.00000
     24     -25.1438      2.00000
     25     -25.1254      2.00000
     26     -25.1002      2.00000
     27     -25.0835      2.00000
     28     -25.0591      2.00000
     29     -24.9879      2.00000
     30     -24.9828      2.00000
     31     -24.5710      2.00000
     32     -24.5548      2.00000
     33     -24.4904      2.00000
     34     -24.4258      2.00000
     35     -24.3873      2.00000
     36     -24.3611      2.00000
     37     -24.3078      2.00000
     38     -24.2812      2.00000
     39     -24.1835      2.00000
     40     -24.1601      2.00000
     41     -24.0785      2.00000
     42     -24.0599      2.00000
     43     -21.3844      2.00000
     44     -21.3286      2.00000
     45     -21.2662      2.00000
     46     -21.2207      2.00000
     47     -21.1864      2.00000
     48     -21.0765      2.00000
     49     -20.9878      2.00000
     50     -20.9727      2.00000
     51     -20.9614      2.00000
     52     -20.9463      2.00000
     53     -20.9258      2.00000
     54     -20.8932      2.00000
     55     -20.8109      2.00000
     56     -20.7373      2.00000
     57     -20.7015      2.00000
     58     -20.6747      2.00000
     59     -20.6057      2.00000
     60     -20.5899      2.00000
     61       4.3849      2.00000
     62       4.8595      2.00000
     63       5.0367      2.00000
     64       5.3978      2.00000
     65       5.7508      2.00000
     66       5.9522      2.00000
     67       6.0813      2.00000
     68       6.5626      2.00000
     69       6.7998      2.00000
     70       6.8356      2.00000
     71       6.8531      2.00000
     72       6.9210      2.00000
     73       6.9698      2.00000
     74       7.0635      2.00000
     75       7.0715      2.00000
     76       7.1493      2.00000
     77       7.1609      2.00000
     78       7.1918      2.00000
     79       7.2497      2.00000
     80       7.3013      2.00000
     81       7.5450      2.00000
     82       7.5957      2.00000
     83       7.6685      2.00000
     84       7.7721      2.00000
     85       7.7827      2.00000
     86       7.8063      2.00000
     87       7.8402      2.00000
     88       7.9028      2.00000
     89       7.9294      2.00000
     90       7.9423      2.00000
     91       7.9528      2.00000
     92       7.9891      2.00000
     93       8.0319      2.00000
     94       8.0664      2.00000
     95       8.0910      2.00000
     96       8.1185      2.00000
     97       8.1437      2.00000
     98       8.1627      2.00000
     99       8.1850      2.00000
    100       8.2261      2.00000
    101       8.2858      2.00000
    102       8.3200      2.00000
    103       8.3534      2.00000
    104       8.4134      2.00000
    105       8.4290      2.00000
    106       8.4547      2.00000
    107       8.5354      2.00000
    108       8.9346      2.00000
    109      11.5018      0.00000
    110      11.5437      0.00000
    111      11.6307      0.00000
    112      11.7476      0.00000
    113      11.8665      0.00000
    114      11.9153      0.00000
    115      11.9883      0.00000
    116      12.0245      0.00000
    117      12.0838      0.00000
    118      12.1039      0.00000
    119      12.2032      0.00000
    120      12.2452      0.00000
    121      12.2990      0.00000
    122      12.3862      0.00000
    123      12.4418      0.00000
    124      12.5520      0.00000


--------------------------------------------------------------------------------------------------------


 soft charge-density along one line, spin component           1
         0         1         2         3         4         5         6         7         8         9
 total charge-density along one line
 
 pseudopotential strength for first ion, spin component:           1
  5.772 -20.339  -0.001   0.001   0.004   0.002  -0.003  -0.008
-20.339   9.251  -0.001   0.002   0.005   0.000  -0.000  -0.000
 -0.001  -0.001  -9.792  -0.001   0.001   6.038   0.001  -0.001
  0.001   0.002  -0.001  -9.793   0.001   0.001   6.039  -0.001
  0.004   0.005   0.001   0.001  -9.787  -0.001  -0.001   6.033
  0.002   0.000   6.038   0.001  -0.001   7.919  -0.001   0.001
 -0.003  -0.000   0.001   6.039  -0.001  -0.001   7.919   0.000
 -0.008  -0.000  -0.001  -0.001   6.033   0.001   0.000   7.922
  0.001   0.000   0.003   0.000  -0.001  -0.004  -0.000   0.001
 -0.001  -0.000   0.001  -0.001   0.000  -0.002   0.001  -0.000
 -0.001  -0.001   0.000   0.001  -0.002  -0.000  -0.002   0.002
  0.000   0.000   0.000   0.003   0.001  -0.000  -0.004  -0.002
  0.002   0.001   0.001   0.000   0.003  -0.001  -0.000  -0.003
  0.001   0.000   0.004   0.000  -0.001  -0.006  -0.000   0.002
 -0.001  -0.000   0.002  -0.001   0.000  -0.002   0.002  -0.000
 -0.002  -0.001   0.000   0.002  -0.002  -0.001  -0.002   0.002
  0.001   0.000   0.000   0.004   0.002  -0.000  -0.006  -0.002
  0.002   0.001   0.001   0.000   0.003  -0.001  -0.000  -0.004
 total augmentation occupancy for first ion, spin component:           1
  1.995  -0.046   0.000   0.000  -0.000   0.000   0.000  -0.000   0.004  -0.004  -0.002  -0.003   0.004  -0.003   0.003   0.002
 -0.046   1.323   0.001   0.000  -0.001   0.001  -0.002  -0.005   0.009  -0.008  -0.024   0.015   0.035  -0.000  -0.001   0.009
  0.000   0.001   1.996   0.000  -0.000  -0.029  -0.001   0.001  -0.007   0.000   0.001  -0.004   0.001   0.004  -0.000  -0.000
  0.000   0.000   0.000   1.996   0.000  -0.001  -0.029  -0.001  -0.004   0.003   0.003  -0.006  -0.000   0.002  -0.002  -0.002
 -0.000  -0.001  -0.000   0.000   1.996   0.001  -0.001  -0.029   0.003  -0.004  -0.004   0.001   0.006  -0.002   0.003   0.002
  0.000   0.001  -0.029  -0.001   0.001   0.065   0.001  -0.001  -0.004  -0.008  -0.002   0.004  -0.004   0.001   0.004   0.001
  0.000  -0.002  -0.001  -0.029  -0.001   0.001   0.065   0.001   0.004  -0.000  -0.005  -0.006   0.000  -0.003   0.001   0.002
 -0.000  -0.005   0.001  -0.001  -0.029  -0.001   0.001   0.066  -0.001   0.004   0.009  -0.009  -0.015   0.001  -0.003  -0.004
  0.004   0.009  -0.007  -0.004   0.003  -0.004   0.004  -0.001   3.265   0.093  -0.026   0.012   0.001  -1.356  -0.059   0.012
 -0.004  -0.008   0.000   0.003  -0.004  -0.008  -0.000   0.004   0.093   3.247  -0.015  -0.005   0.025  -0.059  -1.345   0.007
 -0.002  -0.024   0.001   0.003  -0.004  -0.002  -0.005   0.009  -0.026  -0.015   2.631  -0.009  -0.051   0.012   0.007  -1.195
 -0.003   0.015  -0.004  -0.006   0.001   0.004  -0.006  -0.009   0.012  -0.005  -0.009   3.275  -0.012  -0.013   0.010   0.004
  0.004   0.035   0.001  -0.000   0.006  -0.004   0.000  -0.015   0.001   0.025  -0.051  -0.012   2.701  -0.000  -0.011   0.020
 -0.003  -0.000   0.004   0.002  -0.002   0.001  -0.003   0.001  -1.356  -0.059   0.012  -0.013  -0.000   0.576   0.033  -0.006
  0.003  -0.001  -0.000  -0.002   0.003   0.004   0.001  -0.003  -0.059  -1.345   0.007   0.010  -0.011   0.033   0.569  -0.003
  0.002   0.009  -0.000  -0.002   0.002   0.001   0.002  -0.004   0.012   0.007  -1.195   0.004   0.020  -0.006  -0.003   0.551
  0.002  -0.019   0.003   0.004  -0.000  -0.003   0.002   0.005  -0.013   0.010   0.005  -1.359   0.005   0.008  -0.007  -0.002
 -0.004  -0.015  -0.001  -0.000  -0.004   0.002  -0.000   0.006  -0.001  -0.011   0.020   0.005  -1.221   0.000   0.005  -0.008


------------------------ aborting loop because EDIFF is reached ----------------------------------------


    CHARGE:  cpu time      0.0885: real time      0.0888
    FORLOC:  cpu time      0.0005: real time      0.0005
    FORNL :  cpu time      0.7973: real time      0.8000
    STRESS:  cpu time      1.0193: real time      1.0228
    FORCOR:  cpu time      0.0058: real time      0.0058
    FORHAR:  cpu time      0.0014: real time      0.0015
    MIXING:  cpu time      0.0006: real time      0.0006
    OFIELD:  cpu time      0.0000: real time      0.0000

  FORCE on cell =-STRESS in cart. coord.  units (eV):
  Direction    XX          YY          ZZ          XY          YZ          ZX
  --------------------------------------------------------------------------------------
  Alpha Z  1728.39355  1728.39355  1728.39355
  Ewald   -7126.05410 -6994.00871 -7047.68623     1.05384    -1.05384    15.80762
  Hartree  1151.23243  1279.45600  1227.34124     0.88957    -0.72664    15.32344
  E(xc)    -942.16316  -942.20050  -942.24123    -0.00304    -0.00435    -0.02609
  Local    1690.06882  1432.50860  1538.94498    -1.45950     1.66917   -31.58306
  n-local  -375.79925  -376.70728  -375.80668    -0.49840     0.43787     0.30939
  augment   466.38001   466.04322   465.99860    -0.07053    -0.00203     0.15477
  Kinetic  3387.73414  3384.52263  3383.52055     0.27377    -0.19302    -0.12198
  Fock        0.00000     0.00000     0.00000     0.00000     0.00000     0.00000
  -------------------------------------------------------------------------------------
  Total     -20.20757   -21.99249   -21.53522     0.18572     0.12716    -0.13590
  in kB    -113.64412  -123.68220  -121.11062     1.04444     0.71511    -0.76430
  external pressure =     -119.48 kB  Pullay stress =        0.00 kB


 VOLUME and BASIS-vectors are now :
 -----------------------------------------------------------------------------
  energy-cutoff  :      250.00
  volume of cell :      284.89
      direct lattice vectors                 reciprocal lattice vectors
     6.580000000  0.000000000  0.000000000     0.151975684  0.000000000  0.000000000
     0.000000000  6.580000000  0.000000000     0.000000000  0.151975684  0.000000000
     0.000000000  0.000000000  6.580000000     0.000000000  0.000000000  0.151975684

  length of vectors
     6.580000000  6.580000000  6.580000000     0.151975684  0.151975684  0.151975684


 FORCES acting on ions
    electron-ion (+dipol)            ewald-force                    non-local-force                 convergence-correction
 -----------------------------------------------------------------------------------------------
   0.721E+02 -.104E+02 0.512E+02   -.714E+02 0.102E+02 -.510E+02   0.396E-01 0.304E-01 0.842E-01   -.266E-04 -.157E-04 0.340E-04
   0.721E+02 0.104E+02 -.304E+02   -.714E+02 -.102E+02 0.306E+02   -.140E+00 -.382E-01 -.122E+00   0.113E-03 -.130E-03 0.993E-04
   -.722E+02 0.104E+02 0.304E+02   0.714E+02 -.102E+02 -.306E+02   0.108E+00 -.538E-01 0.156E+00   -.824E-04 -.106E-03 -.149E-03
   0.721E+02 -.104E+02 -.303E+02   -.714E+02 0.102E+02 0.306E+02   -.923E-01 0.226E-01 -.132E+00   0.167E-03 0.138E-03 0.101E-03
   -.719E+02 -.104E+02 0.512E+02   0.714E+02 0.102E+02 -.510E+02   -.822E-01 0.193E-01 0.995E-01   -.129E-04 0.189E-04 0.132E-04
   -.720E+02 0.104E+02 0.512E+02   0.714E+02 -.102E+02 -.510E+02   -.114E-01 -.211E-01 0.873E-01   -.492E-04 -.260E-04 0.362E-04
   -.774E+02 -.111E+02 0.327E+02   0.769E+02 0.110E+02 -.329E+02   -.219E-02 -.755E-02 0.642E-01   -.801E-04 0.123E-03 -.170E-03
   -.775E+02 0.111E+02 -.327E+02   0.769E+02 -.110E+02 0.329E+02   0.112E-01 -.505E-02 -.632E-01   -.711E-04 -.115E-03 0.174E-03
   0.773E+02 0.111E+02 -.550E+02   -.769E+02 -.110E+02 0.549E+02   0.686E-01 -.156E-02 -.616E-01   0.136E-04 -.339E-05 0.236E-05
   -.776E+02 -.112E+02 -.327E+02   0.769E+02 0.110E+02 0.329E+02   0.890E-01 0.267E-01 -.955E-01   -.109E-03 0.110E-03 0.189E-03
   0.612E+02 -.889E+01 0.256E+02   -.604E+02 0.863E+01 -.259E+02   -.442E-01 -.168E-02 0.684E-01   0.118E-03 0.123E-03 -.838E-04
   0.610E+02 0.886E+01 0.256E+02   -.604E+02 -.863E+01 -.259E+02   0.877E-01 0.846E-02 0.403E-01   0.103E-03 -.113E-03 -.803E-04
   -.611E+02 0.887E+01 -.434E+02   0.604E+02 -.863E+01 0.431E+02   -.619E-01 0.185E-01 -.992E-01   -.830E-04 -.252E-04 -.100E-04
   -.611E+02 -.885E+01 -.434E+02   0.604E+02 0.863E+01 0.431E+02   -.493E-01 -.167E-02 -.765E-01   -.732E-04 0.214E-04 -.301E-05
   0.775E+02 0.112E+02 0.551E+02   -.769E+02 -.110E+02 -.549E+02   0.981E-01 0.509E-01 0.218E-01   -.278E-04 0.192E-04 0.302E-05
   0.774E+02 -.112E+02 -.551E+02   -.769E+02 0.110E+02 0.549E+02   0.114E+00 -.272E-01 -.418E-01   -.219E-04 -.147E-04 -.125E-04
 -----------------------------------------------------------------------------------------------
   -.133E+00 -.189E-01 0.704E-01   -.711E-13 0.231E-13 -.284E-13   0.133E+00 0.189E-01 -.706E-01   -.122E-03 0.395E-05 0.143E-03
 
 
 POSITION                                       TOTAL-FORCE (eV/Angst)
 -----------------------------------------------------------------------------------
      1.64500      1.64500      4.93500         0.802093     -0.193227      0.304523
      0.00000      3.29000      0.00000         0.591312      0.190557      0.120123
      3.29000      3.29000      3.29000        -0.718352      0.197126     -0.076513
      0.00000      0.00000      0.00000         0.626416     -0.221047      0.115620
      4.93500      1.64500      4.93500        -0.640747     -0.190493      0.272920
      4.93500      4.93500      4.93500        -0.641079      0.210659      0.271508
      3.29000      0.00000      3.29000        -0.561082     -0.171279     -0.154237
      3.29000      3.29000      0.00000        -0.591266      0.161771      0.187342
      1.64500      4.93500      1.64500         0.496648      0.154894     -0.159444
      3.29000      0.00000      0.00000        -0.586922     -0.175670      0.168674
      0.00000      0.00000      3.29000         0.707905     -0.259082     -0.206728
      0.00000      3.29000      3.29000         0.710276      0.237205     -0.216138
      4.93500      4.93500      1.64500        -0.784609      0.260442     -0.324935
      4.93500      1.64500      1.64500        -0.736627     -0.225074     -0.310310
      1.64500      4.93500      4.93500         0.683721      0.219623      0.198576
      1.64500      1.64500      1.64500         0.642313     -0.196405     -0.190980
 -----------------------------------------------------------------------------------
    total drift:                                0.000007     -0.000003     -0.000027


--------------------------------------------------------------------------------------------------------



  FREE ENERGIE OF THE ION-ELECTRON SYSTEM (eV)
  ---------------------------------------------------
  free  energy   TOTEN  =      -178.88943065 eV

  energy  without entropy=     -178.88727442  energy(sigma->0) =     -178.88835254
 


--------------------------------------------------------------------------------------------------------


    POTLOK:  cpu time      0.0062: real time      0.0062


--------------------------------------------------------------------------------------------------------


     LOOP+:  cpu time     87.5361: real time     89.4407
    4ORBIT:  cpu time      0.0000: real time      0.0000

 total amount of memory used by VASP MPI-rank0    47987. kBytes
=======================================================================

   base      :      30000. kBytes
   nonl-proj :       8332. kBytes
   fftplans  :        456. kBytes
   grid      :        919. kBytes
   one-center:         31. kBytes
   wavefun   :       8249. kBytes
 
  
  
 General timing and accounting informations for this job:
 ========================================================
  
                  Total CPU time used (sec):       91.681
                            User time (sec):       90.264
                          System time (sec):        1.417
                         Elapsed time (sec):       94.522
  
                   Maximum memory used (kb):       89504.
                   Average memory used (kb):          N/A
  
                          Minor page faults:         8454
                          Major page faults:            0
                 Voluntary context switches:          260
