 vasp.6.3.1 04May22 (build Jul 26 2022 04:02:40) complex                        
  
 executed on             LinuxIFC date 2023.12.01  00:18:06
 running on   48 total cores
 distrk:  each k-point on   48 cores,    1 groups
 distr:  one band on NCORE=  12 cores,    4 groups


--------------------------------------------------------------------------------------------------------


 INCAR:
   ISTART = 0
   NWRITE = 2
   PREC = Accurate
   ENCUT = 250
   GGA = PE
   NSW = 0
   ISIF = 2
   ISYM = 2
   NBLOCK = 1
   KBLOCK = 1
   IBRION = -1
   NELM = 80
   EDIFF = 1E-08
   EDIFFG = -0.01
   ALGO = Normal
   LDIAG = .TRUE.
   LREAL = .FALSE.
   ISMEAR = 0
   SIGMA = 0.02
   ICHARG = 2
   LPLANE = .TRUE.
   NPAR = 4
   LSCALU = .FALSE.
   NSIM = 4
   LWAVE = .FALSE.
   LCHARG = .FALSE.
   ICORELEVEL = 1

 POTCAR:    PAW_PBE Nb_sv 25May2007               
 POTCAR:    PAW_PBE Mo_sv 02Feb2006               
 POTCAR:    PAW_PBE Ta_pv 07Sep2000               
 POTCAR:    PAW_PBE W_sv 04Sep2015                
 POTCAR:    PAW_PBE Nb_sv 25May2007               
   SHA256 =  0e8fc07c9fcd1164cf2ade22d0399fd28f85e91cd773dfa6cf24839a48c95e24 Nb_sv/POTCAR          
   COPYR  = (c) Copyright 25May2007 Georg Kresse                                                    
   COPYR  = This file is part of the software VASP. Any use, copying, and all other rights are regul
   COPYR  = If you do not have a valid VASP license, you may not use, copy or distribute this file. 
   VRHFIN =Nb: 4p5s4d                                                                               
   LEXCH  = PE                                                                                      
   EATOM  =  1555.1913 eV,  114.3033 Ry                                                             
                                                                                                    
   TITEL  = PAW_PBE Nb_sv 25May2007                                                                 
   LULTRA =        F    use ultrasoft PP ?                                                          
   IUNSCR =        1    unscreen: 0-lin 1-nonlin 2-no                                               
   RPACOR =    1.800    partial core radius                                                         
   POMASS =   92.910; ZVAL   =   13.000    mass and valenz                                          
   RCORE  =    2.400    outmost cutoff radius                                                       
   RWIGS  =    2.400; RWIGS  =    1.270    wigner-seitz radius (au A)                               
   ENMAX  =  293.235; ENMIN  =  219.927 eV                                                          
   ICORE  =        3    local potential                                                             
   LCOR   =        T    correct aug charges                                                         
   LPAW   =        T    paw PP                                                                      
   EAUG   =  455.659                                                                                
   DEXC   =    0.000                                                                                
   RMAX   =    2.456    core radius for proj-oper                                                   
   RAUG   =    1.300    factor for augmentation sphere                                              
   RDEP   =    2.451    radius for radial grids                                                     
   RDEPT  =    1.956    core radius for aug-charge                                                  
                                                                                                    
   Atomic configuration                                                                             
   11 entries                                                                                       
     n  l   j            E        occ.                                                              
     1  0  0.50    -18805.2457   2.0000                                                             
     2  0  0.50     -2630.2869   2.0000                                                             
     2  1  1.50     -2348.4046   6.0000                                                             
     3  0  0.50      -438.8757   2.0000                                                             
     3  1  1.50      -346.7588   6.0000                                                             
     3  2  2.50      -196.2560  10.0000                                                             
     4  0  0.50       -58.3859   2.0000                                                             
     5  0  0.50        -3.9816   1.0000                                                             
     4  1  1.50       -34.5141   6.0000                                                             
     4  2  2.50        -3.0408   4.0000                                                             
     4  3  2.50        -1.3606   0.0000                                                             
   Description                                                                                      
     l       E           TYP  RCUT    TYP  RCUT                                                     
     0    -58.3859094     23  2.200                                                                 
     0     -3.9816262     23  2.200                                                                 
     1    -34.5140738     23  2.200                                                                 
     1     13.6058260     23  2.200                                                                 
     2     -3.0408010     23  2.200                                                                 
     2     -0.1283038     23  2.200                                                                 
     3     -1.3605826     23  2.400                                                                 
  local pseudopotential read in
  partial core-charges read in
  partial kinetic energy density read in
  atomic valenz-charges read in
  non local Contribution for L=           0  read in
    real space projection operators read in
  non local Contribution for L=           0  read in
    real space projection operators read in
  non local Contribution for L=           1  read in
    real space projection operators read in
  non local Contribution for L=           1  read in
    real space projection operators read in
  non local Contribution for L=           2  read in
    real space projection operators read in
  non local Contribution for L=           2  read in
    real space projection operators read in
    PAW grid and wavefunctions read in
 
   number of l-projection  operators is LMAX  =           6
   number of lm-projection operators is LMMAX =          18
 
 POTCAR:    PAW_PBE Mo_sv 02Feb2006               
   SHA256 =  2731df97e41766cc617548c5a8267718fdef1f509ac6bafa01e745abea2bdfaa Mo_sv/POTCAR          
   COPYR  = (c) Copyright 02Feb2006 Georg Kresse                                                    
   COPYR  = This file is part of the software VASP. Any use, copying, and all other rights are regul
   COPYR  = If you do not have a valid VASP license, you may not use, copy or distribute this file. 
   VRHFIN =Mo: 4p5s4d                                                                               
   LEXCH  = PE                                                                                      
   EATOM  =  1862.2866 eV,  136.8742 Ry                                                             
                                                                                                    
   TITEL  = PAW_PBE Mo_sv 02Feb2006                                                                 
   LULTRA =        F    use ultrasoft PP ?                                                          
   IUNSCR =        1    unscreen: 0-lin 1-nonlin 2-no                                               
   RPACOR =    2.200    partial core radius                                                         
   POMASS =   95.940; ZVAL   =   14.000    mass and valenz                                          
   RCORE  =    2.500    outmost cutoff radius                                                       
   RWIGS  =    2.750; RWIGS  =    1.455    wigner-seitz radius (au A)                               
   ENMAX  =  242.676; ENMIN  =  182.007 eV                                                          
   ICORE  =        3    local potential                                                             
   LCOR   =        T    correct aug charges                                                         
   LPAW   =        T    paw PP                                                                      
   EAUG   =  446.014                                                                                
   DEXC   =    0.000                                                                                
   RMAX   =    2.563    core radius for proj-oper                                                   
   RAUG   =    1.300    factor for augmentation sphere                                              
   RDEP   =    2.641    radius for radial grids                                                     
   RDEPT  =    2.031    core radius for aug-charge                                                  
                                                                                                    
   Atomic configuration                                                                             
   11 entries                                                                                       
     n  l   j            E        occ.                                                              
     1  0  0.50    -19819.0341   2.0000                                                             
     2  0  0.50     -2799.0127   2.0000                                                             
     2  1  1.50     -2502.0276   6.0000                                                             
     3  0  0.50      -476.4449   2.0000                                                             
     3  1  1.50      -379.1496   6.0000                                                             
     3  2  2.50      -220.9367  10.0000                                                             
     4  0  0.50       -64.3378   2.0000                                                             
     5  0  0.50        -4.0862   1.0000                                                             
     4  1  1.50       -38.4773   6.0000                                                             
     4  2  2.50        -3.7535   5.0000                                                             
     4  3  2.50        -1.3606   0.0000                                                             
   Description                                                                                      
     l       E           TYP  RCUT    TYP  RCUT                                                     
     0    -64.3377829     23  2.100                                                                 
     0     -4.0861640     23  2.400                                                                 
     1    -38.4772993     23  2.100                                                                 
     1     13.6058260     23  2.100                                                                 
     2     -3.7534941     23  2.400                                                                 
     2     -5.1140767     23  2.400                                                                 
     3     -4.0817478     23  2.500                                                                 
  local pseudopotential read in
  partial core-charges read in
  partial kinetic energy density read in
  atomic valenz-charges read in
  non local Contribution for L=           0  read in
    real space projection operators read in
  non local Contribution for L=           0  read in
    real space projection operators read in
  non local Contribution for L=           1  read in
    real space projection operators read in
  non local Contribution for L=           1  read in
    real space projection operators read in
  non local Contribution for L=           2  read in
    real space projection operators read in
  non local Contribution for L=           2  read in
    real space projection operators read in
    PAW grid and wavefunctions read in
 
   number of l-projection  operators is LMAX  =           6
   number of lm-projection operators is LMMAX =          18
 
 POTCAR:    PAW_PBE Ta_pv 07Sep2000               
   SHA256 =  00d0a14a36c127416459414afb8617d9754996fffa60a2465888e660b20a452f Ta_pv/POTCAR          
   COPYR  = (c) Copyright 07Sep2000 Georg Kresse                                                    
   COPYR  = This file is part of the software VASP. Any use, copying, and all other rights are regul
   COPYR  = If you do not have a valid VASP license, you may not use, copy or distribute this file. 
   VRHFIN =Ta:  5p6s5d                                                                              
   LEXCH  = PE                                                                                      
   EATOM  =  1047.1984 eV,   76.9669 Ry                                                             
                                                                                                    
   TITEL  = PAW_PBE Ta_pv 07Sep2000                                                                 
   LULTRA =        F    use ultrasoft PP ?                                                          
   IUNSCR =        1    unscreen: 0-lin 1-nonlin 2-no                                               
   RPACOR =    2.330    partial core radius                                                         
   POMASS =  180.948; ZVAL   =   11.000    mass and valenz                                          
   RCORE  =    2.500    outmost cutoff radius                                                       
   RWIGS  =    2.840; RWIGS  =    1.503    wigner-seitz radius (au A)                               
   ENMAX  =  223.667; ENMIN  =  167.750 eV                                                          
   RCLOC  =    2.205    cutoff for local pot                                                        
   LCOR   =        T    correct aug charges                                                         
   LPAW   =        T    paw PP                                                                      
   EAUG   =  377.421                                                                                
   DEXC   =    0.000                                                                                
   RMAX   =    2.551    core radius for proj-oper                                                   
   RAUG   =    1.300    factor for augmentation sphere                                              
   RDEP   =    2.526    radius for radial grids                                                     
   RDEPT  =    2.132    core radius for aug-charge                                                  
                                                                                                    
   Atomic configuration                                                                             
   15 entries                                                                                       
     n  l   j            E        occ.                                                              
     1  0  0.50    -67341.2801   2.0000                                                             
     2  0  0.50    -11566.9369   2.0000                                                             
     2  1  1.50    -10134.1175   6.0000                                                             
     3  0  0.50     -2648.5614   2.0000                                                             
     3  1  1.50     -2222.6006   6.0000                                                             
     3  2  2.50     -1726.3114  10.0000                                                             
     4  0  0.50      -538.6957   2.0000                                                             
     4  1  1.50      -399.0125   6.0000                                                             
     4  2  2.50      -220.3955  10.0000                                                             
     4  3  3.50       -23.0371  14.0000                                                             
     5  0  0.50       -71.2900   2.0000                                                             
     5  1  1.50       -37.8224   6.0000                                                             
     5  2  2.50        -2.6455   4.0000                                                             
     6  0  0.50        -4.9623   1.0000                                                             
     5  3  2.50        -1.3606   0.0000                                                             
   Description                                                                                      
     l       E           TYP  RCUT    TYP  RCUT                                                     
     1    -37.8224449     23  2.500                                                                 
     1      1.3605826     23  2.500                                                                 
     2     -2.6454718     23  2.500                                                                 
     2     -0.6258570     23  2.500                                                                 
     0     -4.9622674     23  2.500                                                                 
     0      4.7531427     23  2.500                                                                 
  local pseudopotential read in
  partial core-charges read in
  partial kinetic energy density read in
  atomic valenz-charges read in
  non local Contribution for L=           1  read in
    real space projection operators read in
  non local Contribution for L=           1  read in
    real space projection operators read in
  non local Contribution for L=           2  read in
    real space projection operators read in
  non local Contribution for L=           2  read in
    real space projection operators read in
  non local Contribution for L=           0  read in
    real space projection operators read in
  non local Contribution for L=           0  read in
    real space projection operators read in
    PAW grid and wavefunctions read in
 
   number of l-projection  operators is LMAX  =           6
   number of lm-projection operators is LMMAX =          18
 
 POTCAR:    PAW_PBE W_sv 04Sep2015                
   SHA256 =  931c2d770f65867ef30f3db3421922900fc0890ebac5c3e12f63b6a2064023d7 W_sv/POTCAR           
   COPYR  = (c) Copyright 04Sep2015 Georg Kresse                                                    
   COPYR  = This file is part of the software VASP. Any use, copying, and all other rights are regul
   COPYR  = If you do not have a valid VASP license, you may not use, copy or distribute this file. 
   VRHFIN =W : 5p6s5d                                                                               
   LEXCH  = PE                                                                                      
   EATOM  =  1865.5791 eV,  137.1162 Ry                                                             
                                                                                                    
   TITEL  = PAW_PBE W_sv 04Sep2015                                                                  
   LULTRA =        F    use ultrasoft PP ?                                                          
   IUNSCR =        1    unscreen: 0-lin 1-nonlin 2-no                                               
   RPACOR =    2.330    partial core radius                                                         
   POMASS =  183.850; ZVAL   =   14.000    mass and valenz                                          
   RCORE  =    2.500    outmost cutoff radius                                                       
   RWIGS  =    2.750; RWIGS  =    1.455    wigner-seitz radius (au A)                               
   ENMAX  =  223.057; ENMIN  =  167.293 eV                                                          
   ICORE  =        3    local potential                                                             
   LCOR   =        T    correct aug charges                                                         
   LPAW   =        T    paw PP                                                                      
   EAUG   =  373.438                                                                                
   DEXC   =    0.000                                                                                
   RMAX   =    2.565    core radius for proj-oper                                                   
   RAUG   =    1.300    factor for augmentation sphere                                              
   RDEP   =    2.539    radius for radial grids                                                     
   RDEPT  =    2.126    core radius for aug-charge                                                  
                                                                                                    
   Atomic configuration                                                                             
   15 entries                                                                                       
     n  l   j            E        occ.                                                              
     1  0  0.50    -69465.5834   2.0000                                                             
     2  0  0.50    -11986.2640   2.0000                                                             
     2  1  1.50    -10479.8613   6.0000                                                             
     3  0  0.50     -2759.0756   2.0000                                                             
     3  1  1.50     -2313.1855   6.0000                                                             
     3  2  2.50     -1801.1183  10.0000                                                             
     4  0  0.50      -567.6789   2.0000                                                             
     4  1  1.50      -421.4692   6.0000                                                             
     4  2  2.50      -236.3471  10.0000                                                             
     4  3  3.50       -31.2665  14.0000                                                             
     5  0  0.50       -77.1084   2.0000                                                             
     6  0  0.50        -5.1438   1.0000                                                             
     5  1  1.50       -41.3856   6.0000                                                             
     5  2  2.50        -3.3185   5.0000                                                             
     5  3  2.50        -1.3606   0.0000                                                             
   Description                                                                                      
     l       E           TYP  RCUT    TYP  RCUT                                                     
     0    -77.1084470     23  2.100                                                                 
     0     -5.1437956     23  2.300                                                                 
     1    -41.3855615     23  2.500                                                                 
     1     -2.7211652     23  2.500                                                                 
     2     -3.3185025     23  2.500                                                                 
     2     -1.5965151     23  2.500                                                                 
     3     -1.3605826     23  2.500                                                                 
  local pseudopotential read in
  partial core-charges read in
  partial kinetic energy density read in
  kinetic energy density of atom read in
  atomic valenz-charges read in
  non local Contribution for L=           0  read in
    real space projection operators read in
  non local Contribution for L=           0  read in
    real space projection operators read in
  non local Contribution for L=           1  read in
    real space projection operators read in
  non local Contribution for L=           1  read in
    real space projection operators read in
  non local Contribution for L=           2  read in
    real space projection operators read in
  non local Contribution for L=           2  read in
    real space projection operators read in
    PAW grid and wavefunctions read in
 
   number of l-projection  operators is LMAX  =           6
   number of lm-projection operators is LMMAX =          18
 
 -----------------------------------------------------------------------------
|                                                                             |
|               ----> ADVICE to this user running VASP <----                  |
|                                                                             |
|     You have a (more or less) 'large supercell' and for larger cells it     |
|     might be more efficient to use real-space projection operators.         |
|     Therefore, try LREAL= Auto in the INCAR file.                           |
|     Mind: For very accurate calculation, you might also keep the            |
|     reciprocal projection scheme (i.e. LREAL=.FALSE.).                      |
|                                                                             |
 -----------------------------------------------------------------------------

  PAW_PBE Nb_sv 25May2007               :
 energy of atom  1       EATOM=-1555.1913
 kinetic energy error for atom=    0.2155 (will be added to EATOM!!)
  PAW_PBE Mo_sv 02Feb2006               :
 energy of atom  2       EATOM=-1862.2866
 kinetic energy error for atom=    0.1102 (will be added to EATOM!!)
  PAW_PBE Ta_pv 07Sep2000               :
 energy of atom  3       EATOM=-1047.1984
 kinetic energy error for atom=    0.0394 (will be added to EATOM!!)
  PAW_PBE W_sv 04Sep2015                :
 energy of atom  4       EATOM=-1865.5791
 kinetic energy error for atom=    0.0589 (will be added to EATOM!!)
 
 
 POSCAR: Nb-Mo-Ta-W alloy
  positions in direct lattice
  No initial velocities read in
 exchange correlation table for  LEXCH =        8
   RHO(1)=    0.500       N(1)  =     2000
   RHO(2)=  100.500       N(2)  =     4000
 


--------------------------------------------------------------------------------------------------------


 ion  position               nearest neighbor table
   1  0.750  0.500  0.500-   6 2.85  24 2.85  31 2.85  38 2.85  43 2.85  45 2.85  48 2.85  51 2.85
                            42 3.29
   2  0.500  0.500  0.000-   9 2.85  24 2.85  38 2.85  43 2.85  51 2.85  54 2.85  55 2.85  62 2.85

   3  0.125  0.875  0.250-  13 2.85  15 2.85  19 2.85  35 2.85  39 2.85  47 2.85  56 2.85  58 2.85
                            40 3.29
   4  0.000  0.500  0.000-   6 2.85  11 2.85  16 2.85  18 2.85  31 2.85  34 2.85  45 2.85  48 2.85

   5  0.375  0.875  0.750-  10 2.85  20 2.85  35 2.85  39 2.85  47 2.85  50 2.85  58 2.85  60 2.85
                            40 3.29  40 3.29
   6  0.875  0.375  0.250-   1 2.85   4 2.85  14 2.85  25 2.85  32 2.85  33 2.85  44 2.85  52 2.85
                            45 3.29  45 3.29
   7  0.625  0.875  0.250-  10 2.85  17 2.85  20 2.85  42 2.85  50 2.85  57 2.85  59 2.85  60 2.85
                            40 3.29  38 3.29
   8  0.375  0.125  0.250-  12 2.85  20 2.85  29 2.85  35 2.85  46 2.85  47 2.85  49 2.85  60 2.85
                            40 3.29
   9  0.375  0.625  0.750-   2 2.85  10 2.85  26 2.85  30 2.85  39 2.85  50 2.85  58 2.85  61 2.85
                            43 3.29
  10  0.500  0.750  0.500-   5 2.85   7 2.85   9 2.85  36 2.85  38 2.85  40 2.85  43 2.85  54 2.85
                            39 3.29  42 3.29
  11  0.125  0.375  0.750-   4 2.85  12 2.85  14 2.85  25 2.85  26 2.85  33 2.85  46 2.85  61 2.85
                            45 3.29
  12  0.250  0.250  0.000-   8 2.85  11 2.85  23 2.85  27 2.85  34 2.85  55 2.85  62 2.85  64 2.85

  13  0.000  0.750  0.500-   3 2.85  16 2.85  18 2.85  21 2.85  31 2.85  41 2.85  48 2.85  63 2.85
                            39 3.29  42 3.29
  14  0.000  0.250  0.000-   6 2.85  11 2.85  23 2.85  28 2.85  34 2.85  45 2.85  53 2.85  64 2.85
                            44 3.29
  15  0.000  0.000  0.000-   3 2.85  21 2.85  23 2.85  28 2.85  41 2.85  53 2.85  63 2.85  64 2.85

  16  0.125  0.625  0.750-   4 2.85  13 2.85  25 2.85  26 2.85  39 2.85  56 2.85  58 2.85  61 2.85

  17  0.750  0.000  0.000-   7 2.85  21 2.85  22 2.85  28 2.85  36 2.85  37 2.85  41 2.85  53 2.85
                            44 3.29
  18  0.125  0.625  0.250-   4 2.85  13 2.85  25 2.85  26 2.85  39 2.85  56 2.85  58 2.85  61 2.85

  19  0.000  0.000  0.500-   3 2.85  21 2.85  23 2.85  28 2.85  41 2.85  53 2.85  63 2.85  64 2.85

  20  0.500  0.000  0.000-   5 2.85   7 2.85   8 2.85  22 2.85  27 2.85  36 2.85  37 2.85  40 2.85

  21  0.875  0.875  0.250-  13 2.85  15 2.85  17 2.85  19 2.85  42 2.85  56 2.85  57 2.85  59 2.85
                            41 3.29  41 3.29
  22  0.625  0.125  0.250-  17 2.85  20 2.85  29 2.85  32 2.85  44 2.85  49 2.85  57 2.85  60 2.85
                            37 3.29  37 3.29
  23  0.125  0.125  0.250-  12 2.85  14 2.85  15 2.85  19 2.85  33 2.85  35 2.85  46 2.85  47 2.85
                            34 3.29  28 3.29  64 3.29  64 3.29
  24  0.625  0.375  0.750-   1 2.85   2 2.85  29 2.85  30 2.85  32 2.85  44 2.85  49 2.85  52 2.85
                            45 3.29  43 3.29  51 3.29  37 3.29  62 3.29  51 3.29
  25  0.000  0.500  0.500-   6 2.85  11 2.85  16 2.85  18 2.85  31 2.85  34 2.85  45 2.85  48 2.85
                            33 3.29  61 3.29
  26  0.250  0.500  0.000-   9 2.85  11 2.85  16 2.85  18 2.85  34 2.85  54 2.85  55 2.85  62 2.85
                            61 3.29  58 3.29  61 3.29
  27  0.375  0.125  0.750-  12 2.85  20 2.85  29 2.85  35 2.85  46 2.85  47 2.85  49 2.85  60 2.85
                            37 3.29  62 3.29  64 3.29
  28  0.875  0.125  0.250-  14 2.85  15 2.85  17 2.85  19 2.85  32 2.85  33 2.85  44 2.85  57 2.85
                            53 3.29  23 3.29  53 3.29
  29  0.500  0.250  0.500-   8 2.85  22 2.85  24 2.85  27 2.85  37 2.85  51 2.85  55 2.85  62 2.85
                            49 3.29  32 3.29  30 3.29  60 3.29  46 3.29  49 3.29
  30  0.500  0.500  0.500-   9 2.85  24 2.85  38 2.85  43 2.85  51 2.85  54 2.85  55 2.85  62 2.85
                            61 3.29  29 3.29
  31  0.875  0.625  0.750-   1 2.85   4 2.85  13 2.85  25 2.85  42 2.85  52 2.85  56 2.85  59 2.85
                            48 3.29  41 3.29  43 3.29  45 3.29  48 3.29
  32  0.750  0.250  0.500-   6 2.85  22 2.85  24 2.85  28 2.85  37 2.85  45 2.85  51 2.85  53 2.85
                            33 3.29  29 3.29  44 3.29  57 3.29  44 3.29
  33  0.000  0.250  0.500-   6 2.85  11 2.85  23 2.85  28 2.85  34 2.85  45 2.85  53 2.85  64 2.85
                            46 3.29  25 3.29  32 3.29
  34  0.125  0.375  0.250-   4 2.85  12 2.85  14 2.85  25 2.85  26 2.85  33 2.85  46 2.85  61 2.85
                            55 3.29  23 3.29
  35  0.250  0.000  0.500-   3 2.85   5 2.85   8 2.85  23 2.85  27 2.85  40 2.85  63 2.85  64 2.85
                            47 3.29  60 3.29  39 3.29  46 3.29  47 3.29
  36  0.625  0.875  0.750-  10 2.85  17 2.85  20 2.85  42 2.85  50 2.85  57 2.85  59 2.85  60 2.85
                            37 3.29  43 3.29  41 3.29
  37  0.625  0.125  0.750-  17 2.85  20 2.85  29 2.85  32 2.85  44 2.85  49 2.85  57 2.85  60 2.85
                            27 3.29  22 3.29  53 3.29  24 3.29  36 3.29  22 3.29
  38  0.625  0.625  0.250-   1 2.85   2 2.85  10 2.85  30 2.85  42 2.85  50 2.85  52 2.85  59 2.85
                             7 3.29  51 3.29  43 3.29  54 3.29  48 3.29  43 3.29
  39  0.250  0.750  0.500-   3 2.85   5 2.85   9 2.85  16 2.85  18 2.85  40 2.85  54 2.85  63 2.85
                            10 3.29  13 3.29  58 3.29  61 3.29  35 3.29  58 3.29
  40  0.375  0.875  0.250-  10 2.85  20 2.85  35 2.85  39 2.85  47 2.85  50 2.85  58 2.85  60 2.85
                             3 3.29   5 3.29  54 3.29   7 3.29   8 3.29   5 3.29
  41  0.875  0.875  0.750-  13 2.85  15 2.85  17 2.85  19 2.85  42 2.85  56 2.85  57 2.85  59 2.85
                            53 3.29  31 3.29  36 3.29  21 3.29  63 3.29  21 3.29
  42  0.750  0.750  0.500-   7 2.85  21 2.85  31 2.85  36 2.85  38 2.85  41 2.85  43 2.85  48 2.85
                            10 3.29  13 3.29   1 3.29  57 3.29  59 3.29  59 3.29
  43  0.625  0.625  0.750-   1 2.85   2 2.85  10 2.85  30 2.85  42 2.85  50 2.85  52 2.85  59 2.85
                            38 3.29  24 3.29   9 3.29  31 3.29  36 3.29  38 3.29
  44  0.750  0.250  0.000-   6 2.85  22 2.85  24 2.85  28 2.85  37 2.85  45 2.85  51 2.85  53 2.85
                            14 3.29  49 3.29  32 3.29  52 3.29  17 3.29  32 3.29
  45  0.875  0.375  0.750-   1 2.85   4 2.85  14 2.85  25 2.85  32 2.85  33 2.85  44 2.85  52 2.85
                             6 3.29  24 3.29  11 3.29  31 3.29  53 3.29   6 3.29
  46  0.250  0.250  0.500-   8 2.85  11 2.85  23 2.85  27 2.85  34 2.85  55 2.85  62 2.85  64 2.85
                            33 3.29  61 3.29  29 3.29  35 3.29
  47  0.250  0.000  0.000-   3 2.85   5 2.85   8 2.85  23 2.85  27 2.85  40 2.85  63 2.85  64 2.85
                            35 3.29  58 3.29  35 3.29
  48  0.875  0.625  0.250-   1 2.85   4 2.85  13 2.85  25 2.85  42 2.85  52 2.85  56 2.85  59 2.85
                            31 3.29  38 3.29  31 3.29
  49  0.500  0.250  0.000-   8 2.85  22 2.85  24 2.85  27 2.85  37 2.85  51 2.85  55 2.85  62 2.85
                            44 3.29  29 3.29  29 3.29
  50  0.500  0.750  0.000-   5 2.85   7 2.85   9 2.85  36 2.85  38 2.85  40 2.85  43 2.85  54 2.85
                            58 3.29  59 3.29
  51  0.625  0.375  0.250-   1 2.85   2 2.85  29 2.85  30 2.85  32 2.85  44 2.85  49 2.85  52 2.85
                            38 3.29  24 3.29  55 3.29  24 3.29
  52  0.750  0.500  0.000-   6 2.85  24 2.85  31 2.85  38 2.85  43 2.85  45 2.85  48 2.85  51 2.85
                            44 3.29  59 3.29
  53  0.875  0.125  0.750-  14 2.85  15 2.85  17 2.85  19 2.85  32 2.85  33 2.85  44 2.85  57 2.85
                            41 3.29  28 3.29  45 3.29  37 3.29  64 3.29  28 3.29
  54  0.375  0.625  0.250-   2 2.85  10 2.85  26 2.85  30 2.85  39 2.85  50 2.85  58 2.85  61 2.85
                            55 3.29  40 3.29  38 3.29
  55  0.375  0.375  0.250-   2 2.85  12 2.85  26 2.85  29 2.85  30 2.85  46 2.85  49 2.85  61 2.85
                            51 3.29  54 3.29  34 3.29  62 3.29  62 3.29
  56  0.000  0.750  0.000-   3 2.85  16 2.85  18 2.85  21 2.85  31 2.85  41 2.85  48 2.85  63 2.85
                            59 3.29  58 3.29
  57  0.750  0.000  0.500-   7 2.85  21 2.85  22 2.85  28 2.85  36 2.85  37 2.85  41 2.85  53 2.85
                            42 3.29  32 3.29  60 3.29
  58  0.250  0.750  0.000-   3 2.85   5 2.85   9 2.85  16 2.85  18 2.85  40 2.85  54 2.85  63 2.85
                            47 3.29  50 3.29  39 3.29  56 3.29  26 3.29  39 3.29
  59  0.750  0.750  0.000-   7 2.85  21 2.85  31 2.85  36 2.85  38 2.85  41 2.85  43 2.85  48 2.85
                            42 3.29  50 3.29  52 3.29  56 3.29  42 3.29
  60  0.500  0.000  0.500-   5 2.85   7 2.85   8 2.85  22 2.85  27 2.85  36 2.85  37 2.85  40 2.85
                            35 3.29  29 3.29  57 3.29
  61  0.250  0.500  0.500-   9 2.85  11 2.85  16 2.85  18 2.85  34 2.85  54 2.85  55 2.85  62 2.85
                            39 3.29  46 3.29  26 3.29  30 3.29  25 3.29  26 3.29
  62  0.375  0.375  0.750-   2 2.85  12 2.85  26 2.85  29 2.85  30 2.85  46 2.85  49 2.85  61 2.85
                            27 3.29  55 3.29  24 3.29  55 3.29
  63  0.125  0.875  0.750-  13 2.85  15 2.85  19 2.85  35 2.85  39 2.85  47 2.85  56 2.85  58 2.85
                            41 3.29  64 3.29
  64  0.125  0.125  0.750-  12 2.85  14 2.85  15 2.85  19 2.85  33 2.85  35 2.85  46 2.85  47 2.85
                            23 3.29  27 3.29  53 3.29  63 3.29  23 3.29
 
  LATTYP: Found a simple tetragonal cell.
 ALAT       =    13.1600000000
 C/A-ratio  =     0.5000000000
  
  Lattice vectors:
  
 A1 = (  13.1600000000,   0.0000000000,   0.0000000000)
 A2 = (   0.0000000000,  13.1600000000,   0.0000000000)
 A3 = (   0.0000000000,   0.0000000000,   6.5800000000)


Analysis of symmetry for initial positions (statically):
=====================================================================
 Subroutine PRICEL returns:
 Original cell was already a primitive cell.
 

 Routine SETGRP: Setting up the symmetry group for a 
 simple tetragonal supercell.


 Subroutine GETGRP returns: Found  1 space group operations
 (whereof  1 operations were pure point group operations)
 out of a pool of 16 trial point group operations.


The static configuration has the point symmetry C_1 .


Analysis of symmetry for dynamics (positions and initial velocities):
=====================================================================
 Subroutine PRICEL returns:
 Original cell was already a primitive cell.
 

 Routine SETGRP: Setting up the symmetry group for a 
 simple tetragonal supercell.


 Subroutine GETGRP returns: Found  1 space group operations
 (whereof  1 operations were pure point group operations)
 out of a pool of 16 trial point group operations.


The dynamic configuration has the point symmetry C_1 .


 Subroutine INISYM returns: Found  1 space group operations
 (whereof  1 operations are pure point group operations),
 and found     1 'primitive' translations


----------------------------------------------------------------------------------------

                                     Primitive cell                                     

  volume of cell :    1139.5612

  direct lattice vectors                    reciprocal lattice vectors
    13.160000000  0.000000000  0.000000000     0.075987842  0.000000000  0.000000000
     0.000000000 13.160000000  0.000000000     0.000000000  0.075987842  0.000000000
     0.000000000  0.000000000  6.580000000     0.000000000  0.000000000  0.151975684

  length of vectors
    13.160000000 13.160000000  6.580000000     0.075987842  0.075987842  0.151975684

  position of ions in fractional coordinates (direct lattice)
     0.750000000  0.500000000  0.500000000
     0.500000000  0.500000000  0.000000000
     0.125000000  0.875000000  0.250000000
     0.000000000  0.500000000  0.000000000
     0.375000000  0.875000000  0.750000000
     0.875000000  0.375000000  0.250000000
     0.625000000  0.875000000  0.250000000
     0.375000000  0.125000000  0.250000000
     0.375000000  0.625000000  0.750000000
     0.500000000  0.750000000  0.500000000
     0.125000000  0.375000000  0.750000000
     0.250000000  0.250000000  0.000000000
     0.000000000  0.750000000  0.500000000
     0.000000000  0.250000000  0.000000000
     0.000000000  0.000000000  0.000000000
     0.125000000  0.625000000  0.750000000
     0.750000000  0.000000000  0.000000000
     0.125000000  0.625000000  0.250000000
     0.000000000  0.000000000  0.500000000
     0.500000000  0.000000000  0.000000000
     0.875000000  0.875000000  0.250000000
     0.625000000  0.125000000  0.250000000
     0.125000000  0.125000000  0.250000000
     0.625000000  0.375000000  0.750000000
     0.000000000  0.500000000  0.500000000
     0.250000000  0.500000000  0.000000000
     0.375000000  0.125000000  0.750000000
     0.875000000  0.125000000  0.250000000
     0.500000000  0.250000000  0.500000000
     0.500000000  0.500000000  0.500000000
     0.875000000  0.625000000  0.750000000
     0.750000000  0.250000000  0.500000000
     0.000000000  0.250000000  0.500000000
     0.125000000  0.375000000  0.250000000
     0.250000000  0.000000000  0.500000000
     0.625000000  0.875000000  0.750000000
     0.625000000  0.125000000  0.750000000
     0.625000000  0.625000000  0.250000000
     0.250000000  0.750000000  0.500000000
     0.375000000  0.875000000  0.250000000
     0.875000000  0.875000000  0.750000000
     0.750000000  0.750000000  0.500000000
     0.625000000  0.625000000  0.750000000
     0.750000000  0.250000000  0.000000000
     0.875000000  0.375000000  0.750000000
     0.250000000  0.250000000  0.500000000
     0.250000000  0.000000000  0.000000000
     0.875000000  0.625000000  0.250000000
     0.500000000  0.250000000  0.000000000
     0.500000000  0.750000000  0.000000000
     0.625000000  0.375000000  0.250000000
     0.750000000  0.500000000  0.000000000
     0.875000000  0.125000000  0.750000000
     0.375000000  0.625000000  0.250000000
     0.375000000  0.375000000  0.250000000
     0.000000000  0.750000000  0.000000000
     0.750000000  0.000000000  0.500000000
     0.250000000  0.750000000  0.000000000
     0.750000000  0.750000000  0.000000000
     0.500000000  0.000000000  0.500000000
     0.250000000  0.500000000  0.500000000
     0.375000000  0.375000000  0.750000000
     0.125000000  0.875000000  0.750000000
     0.125000000  0.125000000  0.750000000

  ion indices of the primitive-cell ions
   primitive index   ion index
                 1           1
                 2           2
                 3           3
                 4           4
                 5           5
                 6           6
                 7           7
                 8           8
                 9           9
                10          10
                11          11
                12          12
                13          13
                14          14
                15          15
                16          16
                17          17
                18          18
                19          19
                20          20
                21          21
                22          22
                23          23
                24          24
                25          25
                26          26
                27          27
                28          28
                29          29
                30          30
                31          31
                32          32
                33          33
                34          34
                35          35
                36          36
                37          37
                38          38
                39          39
                40          40
                41          41
                42          42
                43          43
                44          44
                45          45
                46          46
                47          47
                48          48
                49          49
                50          50
                51          51
                52          52
                53          53
                54          54
                55          55
                56          56
                57          57
                58          58
                59          59
                60          60
                61          61
                62          62
                63          63
                64          64

----------------------------------------------------------------------------------------

 
 
 KPOINTS: K-Spacing Value to Generate K-Mesh: 0.03

Automatic generation of k-mesh.
 Grid dimensions read from file:
 generate k-points for:    3    3    5

 Generating k-lattice:

  Cartesian coordinates                     Fractional coordinates (reciprocal lattice)
     0.025329281  0.000000000  0.000000000     0.333333333  0.000000000  0.000000000
     0.000000000  0.025329281  0.000000000     0.000000000  0.333333333  0.000000000
     0.000000000  0.000000000  0.030395137     0.000000000  0.000000000  0.200000000

  Length of vectors
     0.025329281  0.025329281  0.030395137

  Shift w.r.t. Gamma in fractional coordinates (k-lattice)
     0.000000000  0.000000000  0.000000000

 
 Subroutine IBZKPT returns following result:
 ===========================================
 
 Found     23 irreducible k-points:
 
 Following reciprocal coordinates:
            Coordinates               Weight
  0.000000  0.000000  0.000000      1.000000
  0.333333  0.000000  0.000000      2.000000
  0.000000  0.333333  0.000000      2.000000
  0.333333  0.333333  0.000000      2.000000
 -0.333333  0.333333  0.000000      2.000000
  0.000000  0.000000  0.200000      2.000000
  0.333333  0.000000  0.200000      2.000000
  0.000000  0.333333  0.200000      2.000000
 -0.333333  0.000000  0.200000      2.000000
  0.000000 -0.333333  0.200000      2.000000
  0.333333  0.333333  0.200000      2.000000
 -0.333333  0.333333  0.200000      2.000000
 -0.333333 -0.333333  0.200000      2.000000
  0.333333 -0.333333  0.200000      2.000000
  0.000000  0.000000  0.400000      2.000000
  0.333333  0.000000  0.400000      2.000000
  0.000000  0.333333  0.400000      2.000000
 -0.333333  0.000000  0.400000      2.000000
  0.000000 -0.333333  0.400000      2.000000
  0.333333  0.333333  0.400000      2.000000
 -0.333333  0.333333  0.400000      2.000000
 -0.333333 -0.333333  0.400000      2.000000
  0.333333 -0.333333  0.400000      2.000000
 
 Following cartesian coordinates:
            Coordinates               Weight
  0.000000  0.000000  0.000000      1.000000
  0.025329  0.000000  0.000000      2.000000
  0.000000  0.025329  0.000000      2.000000
  0.025329  0.025329  0.000000      2.000000
 -0.025329  0.025329  0.000000      2.000000
  0.000000  0.000000  0.030395      2.000000
  0.025329  0.000000  0.030395      2.000000
  0.000000  0.025329  0.030395      2.000000
 -0.025329  0.000000  0.030395      2.000000
  0.000000 -0.025329  0.030395      2.000000
  0.025329  0.025329  0.030395      2.000000
 -0.025329  0.025329  0.030395      2.000000
 -0.025329 -0.025329  0.030395      2.000000
  0.025329 -0.025329  0.030395      2.000000
  0.000000  0.000000  0.060790      2.000000
  0.025329  0.000000  0.060790      2.000000
  0.000000  0.025329  0.060790      2.000000
 -0.025329  0.000000  0.060790      2.000000
  0.000000 -0.025329  0.060790      2.000000
  0.025329  0.025329  0.060790      2.000000
 -0.025329  0.025329  0.060790      2.000000
 -0.025329 -0.025329  0.060790      2.000000
  0.025329 -0.025329  0.060790      2.000000
 


--------------------------------------------------------------------------------------------------------




 Dimension of arrays:
   k-points           NKPTS =     23   k-points in BZ     NKDIM =     23   number of bands    NBANDS=    508
   number of dos      NEDOS =    301   number of ions     NIONS =     64
   non local maximal  LDIM  =      6   non local SUM 2l+1 LMDIM =     18
   total plane-waves  NPLWV = 176400
   max r-space proj   IRMAX =      1   max aug-charges    IRDMAX=   9034
   dimension x,y,z NGX =    70 NGY =   70 NGZ =   36
   dimension x,y,z NGXF=   140 NGYF=  140 NGZF=   72
   support grid    NGXF=   140 NGYF=  140 NGZF=   72
   ions per type =              22  14   9  19
   NGX,Y,Z   is equivalent  to a cutoff of   8.84,  8.84,  9.10 a.u.
   NGXF,Y,Z  is equivalent  to a cutoff of  17.69, 17.69, 18.19 a.u.

 SYSTEM =  unknown system                          
 POSCAR =  Nb-Mo-Ta-W alloy                        

 Startparameter for this run:
   NWRITE =      2    write-flag & timer
   PREC   = accura    normal or accurate (medium, high low for compatibility)
   ISTART =      0    job   : 0-new  1-cont  2-samecut
   ICHARG =      2    charge: 1-file 2-atom 10-const
   ISPIN  =      1    spin polarized calculation?
   LNONCOLLINEAR =      F non collinear calculations
   LSORBIT =      F    spin-orbit coupling
   INIWAV =      1    electr: 0-lowe 1-rand  2-diag
   LASPH  =      F    aspherical Exc in radial PAW
 Electronic Relaxation 1
   ENCUT  =  250.0 eV  18.37 Ry    4.29 a.u.  16.97 16.97  8.48*2*pi/ulx,y,z
   ENINI  =  250.0     initial cutoff
   ENAUG  =  455.7 eV  augmentation charge cutoff
   NELM   =     80;   NELMIN=  2; NELMDL= -5     # of ELM steps 
   EDIFF  = 0.1E-07   stopping-criterion for ELM
   LREAL  =      F    real-space projection
   NLSPLINE    = F    spline interpolate recip. space projectors
   LCOMPAT=      F    compatible to vasp.4.4
   GGA_COMPAT  = T    GGA compatible to vasp.4.4-vasp.4.6
   LMAXPAW     = -100 max onsite density
   LMAXMIX     =    2 max onsite mixed and CHGCAR
   VOSKOWN=      0    Vosko Wilk Nusair interpolation
   ROPT   =    0.00000   0.00000   0.00000   0.00000
 Ionic relaxation
   EDIFFG = -.1E-01   stopping-criterion for IOM
   NSW    =      0    number of steps for IOM
   NBLOCK =      1;   KBLOCK =      1    inner block; outer block 
   IBRION =     -1    ionic relax: 0-MD 1-quasi-New 2-CG
   NFREE  =      0    steps in history (QN), initial steepest desc. (CG)
   ISIF   =      2    stress and relaxation
   IWAVPR =     10    prediction:  0-non 1-charg 2-wave 3-comb
   ISYM   =      2    0-nonsym 1-usesym 2-fastsym
   LCORR  =      T    Harris-Foulkes like correction to forces

   POTIM  = 0.5000    time-step for ionic-motion
   TEIN   =    0.0    initial temperature
   TEBEG  =    0.0;   TEEND  =   0.0 temperature during run
   SMASS  =  -3.00    Nose mass-parameter (am)
   estimated Nose-frequenzy (Omega)   =  0.10E-29 period in steps = 0.13E+47 mass=  -0.396E-26a.u.
   SCALEE = 1.0000    scale energy and forces
   NPACO  =    256;   APACO  = 10.0  distance and # of slots for P.C.
   PSTRESS=    0.0 pullay stress

  Mass of Ions in am
   POMASS =  92.91 95.94180.95183.85
  Ionic Valenz
   ZVAL   =  13.00 14.00 11.00 14.00
  Atomic Wigner-Seitz radii
   RWIGS  =  -1.00 -1.00 -1.00 -1.00
  virtual crystal weights 
   VCA    =   1.00  1.00  1.00  1.00
   NELECT =     847.0000    total number of electrons
   NUPDOWN=      -1.0000    fix difference up-down

 DOS related values:
   EMIN   =  10.00;   EMAX   =-10.00  energy-range for DOS
   EFERMI =   0.00
   ISMEAR =     0;   SIGMA  =   0.02  broadening in eV -4-tet -1-fermi 0-gaus

 Electronic relaxation 2 (details)
   IALGO  =     38    algorithm
   LDIAG  =      T    sub-space diagonalisation (order eigenvalues)
   LSUBROT=      F    optimize rotation matrix (better conditioning)
   TURBO    =      0    0=normal 1=particle mesh
   IRESTART =      0    0=no restart 2=restart with 2 vectors
   NREBOOT  =      0    no. of reboots
   NMIN     =      0    reboot dimension
   EREF     =   0.00    reference energy to select bands
   IMIX   =      4    mixing-type and parameters
     AMIX     =   0.40;   BMIX     =  1.00
     AMIX_MAG =   1.60;   BMIX_MAG =  1.00
     AMIN     =   0.10
     WC   =   100.;   INIMIX=   1;  MIXPRE=   1;  MAXMIX= -45

 Intra band minimization:
   WEIMIN = 0.0000     energy-eigenvalue tresh-hold
   EBREAK =  0.49E-11  absolut break condition
   DEPER  =   0.30     relativ break condition  

   TIME   =   0.40     timestep for ELM

  volume/ion in A,a.u.               =      17.81       120.16
  Fermi-wavevector in a.u.,A,eV,Ry     =   1.482939  2.802349 29.920699  2.199109
  Thomas-Fermi vector in A             =   2.596663
 
 Write flags
   LWAVE        =      F    write WAVECAR
   LDOWNSAMPLE  =      F    k-point downsampling of WAVECAR
   LCHARG       =      F    write CHGCAR
   LVTOT        =      F    write LOCPOT, total local potential
   LVHAR        =      F    write LOCPOT, Hartree potential only
   LELF         =      F    write electronic localiz. function (ELF)
   LORBIT       =      0    0 simple, 1 ext, 2 COOP (PROOUT), +10 PAW based schemes


 Dipole corrections
   LMONO  =      F    monopole corrections only (constant potential shift)
   LDIPOL =      F    correct potential (dipole corrections)
   IDIPOL =      0    1-x, 2-y, 3-z, 4-all directions 
   EPSILON=  1.0000000 bulk dielectric constant

 Core level calculations are selected ICORELEVEL =  1
 Exchange correlation treatment:
   GGA     =    PE    GGA type
   LEXCH   =     8    internal setting for exchange type
   LIBXC   =     F    Libxc                    
   VOSKOWN =     0    Vosko Wilk Nusair interpolation
   LHFCALC =     F    Hartree Fock is set to
   LHFONE  =     F    Hartree Fock one center treatment
   AEXX    =    0.0000 exact exchange contribution

 Linear response parameters
   LEPSILON=     F    determine dielectric tensor
   LRPA    =     F    only Hartree local field effects (RPA)
   LNABLA  =     F    use nabla operator in PAW spheres
   LVEL    =     F    velocity operator in full k-point grid
   CSHIFT  =0.1000    complex shift for real part using Kramers Kronig
   OMEGAMAX=  -1.0    maximum frequency
   DEG_THRESHOLD= 0.2000000E-02 threshold for treating states as degnerate
   RTIME   =   -0.100 relaxation time in fs
  (WPLASMAI=    0.000 imaginary part of plasma frequency in eV, 0.658/RTIME)
   DFIELD  = 0.0000000 0.0000000 0.0000000 field for delta impulse in time
 
  Optional k-point grid parameters
   LKPOINTS_OPT  =     F    use optional k-point grid
   KPOINTS_OPT_MODE=     1    mode for optional k-point grid
 
 Orbital magnetization related:
   ORBITALMAG=     F  switch on orbital magnetization
   LCHIMAG   =     F  perturbation theory with respect to B field
   DQ        =  0.001000  dq finite difference perturbation B field
   LLRAUG    =     F  two centre corrections for induced B field



--------------------------------------------------------------------------------------------------------


 Static calculation
 charge density and potential will be updated during run
 non-spin polarized calculation
 Variant of blocked Davidson
 Davidson routine will perform the subspace rotation
 perform sub-space diagonalisation
    after iterative eigenvector-optimisation
 modified Broyden-mixing scheme, WC =      100.0
 initial mixing is a Kerker type mixing with AMIX =  0.4000 and BMIX =      1.0000
 Hartree-type preconditioning will be used
 using additional bands           84
 reciprocal scheme for non local part
 use partial core corrections
 calculate Harris-corrections to forces 
   (improved forces if not selfconsistent)
 use gradient corrections 
 use of overlap-Matrix (Vanderbilt PP)
 Gauss-broadening in eV      SIGMA  =   0.02


--------------------------------------------------------------------------------------------------------


  energy-cutoff  :      250.00
  volume of cell :     1139.56
      direct lattice vectors                 reciprocal lattice vectors
    13.160000000  0.000000000  0.000000000     0.075987842  0.000000000  0.000000000
     0.000000000 13.160000000  0.000000000     0.000000000  0.075987842  0.000000000
     0.000000000  0.000000000  6.580000000     0.000000000  0.000000000  0.151975684

  length of vectors
    13.160000000 13.160000000  6.580000000     0.075987842  0.075987842  0.151975684


 
 k-points in units of 2pi/SCALE and weight: K-Spacing Value to Generate K-Mesh: 0.03
   0.00000000  0.00000000  0.00000000       0.022
   0.02532928  0.00000000  0.00000000       0.044
   0.00000000  0.02532928  0.00000000       0.044
   0.02532928  0.02532928  0.00000000       0.044
  -0.02532928  0.02532928  0.00000000       0.044
   0.00000000  0.00000000  0.03039514       0.044
   0.02532928  0.00000000  0.03039514       0.044
   0.00000000  0.02532928  0.03039514       0.044
  -0.02532928  0.00000000  0.03039514       0.044
   0.00000000 -0.02532928  0.03039514       0.044
   0.02532928  0.02532928  0.03039514       0.044
  -0.02532928  0.02532928  0.03039514       0.044
  -0.02532928 -0.02532928  0.03039514       0.044
   0.02532928 -0.02532928  0.03039514       0.044
   0.00000000  0.00000000  0.06079027       0.044
   0.02532928  0.00000000  0.06079027       0.044
   0.00000000  0.02532928  0.06079027       0.044
  -0.02532928  0.00000000  0.06079027       0.044
   0.00000000 -0.02532928  0.06079027       0.044
   0.02532928  0.02532928  0.06079027       0.044
  -0.02532928  0.02532928  0.06079027       0.044
  -0.02532928 -0.02532928  0.06079027       0.044
   0.02532928 -0.02532928  0.06079027       0.044
 
 k-points in reciprocal lattice and weights: K-Spacing Value to Generate K-Mesh: 0.03
   0.00000000  0.00000000  0.00000000       0.022
   0.33333333  0.00000000  0.00000000       0.044
   0.00000000  0.33333333  0.00000000       0.044
   0.33333333  0.33333333  0.00000000       0.044
  -0.33333333  0.33333333  0.00000000       0.044
   0.00000000  0.00000000  0.20000000       0.044
   0.33333333  0.00000000  0.20000000       0.044
   0.00000000  0.33333333  0.20000000       0.044
  -0.33333333  0.00000000  0.20000000       0.044
   0.00000000 -0.33333333  0.20000000       0.044
   0.33333333  0.33333333  0.20000000       0.044
  -0.33333333  0.33333333  0.20000000       0.044
  -0.33333333 -0.33333333  0.20000000       0.044
   0.33333333 -0.33333333  0.20000000       0.044
   0.00000000  0.00000000  0.40000000       0.044
   0.33333333  0.00000000  0.40000000       0.044
   0.00000000  0.33333333  0.40000000       0.044
  -0.33333333  0.00000000  0.40000000       0.044
   0.00000000 -0.33333333  0.40000000       0.044
   0.33333333  0.33333333  0.40000000       0.044
  -0.33333333  0.33333333  0.40000000       0.044
  -0.33333333 -0.33333333  0.40000000       0.044
   0.33333333 -0.33333333  0.40000000       0.044
 
 position of ions in fractional coordinates (direct lattice) 
   0.75000000  0.50000000  0.50000000
   0.50000000  0.50000000  0.00000000
   0.12500000  0.87500000  0.25000000
   0.00000000  0.50000000  0.00000000
   0.37500000  0.87500000  0.75000000
   0.87500000  0.37500000  0.25000000
   0.62500000  0.87500000  0.25000000
   0.37500000  0.12500000  0.25000000
   0.37500000  0.62500000  0.75000000
   0.50000000  0.75000000  0.50000000
   0.12500000  0.37500000  0.75000000
   0.25000000  0.25000000  0.00000000
   0.00000000  0.75000000  0.50000000
   0.00000000  0.25000000  0.00000000
   0.00000000  0.00000000  0.00000000
   0.12500000  0.62500000  0.75000000
   0.75000000  0.00000000  0.00000000
   0.12500000  0.62500000  0.25000000
   0.00000000  0.00000000  0.50000000
   0.50000000  0.00000000  0.00000000
   0.87500000  0.87500000  0.25000000
   0.62500000  0.12500000  0.25000000
   0.12500000  0.12500000  0.25000000
   0.62500000  0.37500000  0.75000000
   0.00000000  0.50000000  0.50000000
   0.25000000  0.50000000  0.00000000
   0.37500000  0.12500000  0.75000000
   0.87500000  0.12500000  0.25000000
   0.50000000  0.25000000  0.50000000
   0.50000000  0.50000000  0.50000000
   0.87500000  0.62500000  0.75000000
   0.75000000  0.25000000  0.50000000
   0.00000000  0.25000000  0.50000000
   0.12500000  0.37500000  0.25000000
   0.25000000  0.00000000  0.50000000
   0.62500000  0.87500000  0.75000000
   0.62500000  0.12500000  0.75000000
   0.62500000  0.62500000  0.25000000
   0.25000000  0.75000000  0.50000000
   0.37500000  0.87500000  0.25000000
   0.87500000  0.87500000  0.75000000
   0.75000000  0.75000000  0.50000000
   0.62500000  0.62500000  0.75000000
   0.75000000  0.25000000  0.00000000
   0.87500000  0.37500000  0.75000000
   0.25000000  0.25000000  0.50000000
   0.25000000  0.00000000  0.00000000
   0.87500000  0.62500000  0.25000000
   0.50000000  0.25000000  0.00000000
   0.50000000  0.75000000  0.00000000
   0.62500000  0.37500000  0.25000000
   0.75000000  0.50000000  0.00000000
   0.87500000  0.12500000  0.75000000
   0.37500000  0.62500000  0.25000000
   0.37500000  0.37500000  0.25000000
   0.00000000  0.75000000  0.00000000
   0.75000000  0.00000000  0.50000000
   0.25000000  0.75000000  0.00000000
   0.75000000  0.75000000  0.00000000
   0.50000000  0.00000000  0.50000000
   0.25000000  0.50000000  0.50000000
   0.37500000  0.37500000  0.75000000
   0.12500000  0.87500000  0.75000000
   0.12500000  0.12500000  0.75000000
 
 position of ions in cartesian coordinates  (Angst):
   9.87000000  6.58000000  3.29000000
   6.58000000  6.58000000  0.00000000
   1.64500000 11.51500000  1.64500000
   0.00000000  6.58000000  0.00000000
   4.93500000 11.51500000  4.93500000
  11.51500000  4.93500000  1.64500000
   8.22500000 11.51500000  1.64500000
   4.93500000  1.64500000  1.64500000
   4.93500000  8.22500000  4.93500000
   6.58000000  9.87000000  3.29000000
   1.64500000  4.93500000  4.93500000
   3.29000000  3.29000000  0.00000000
   0.00000000  9.87000000  3.29000000
   0.00000000  3.29000000  0.00000000
   0.00000000  0.00000000  0.00000000
   1.64500000  8.22500000  4.93500000
   9.87000000  0.00000000  0.00000000
   1.64500000  8.22500000  1.64500000
   0.00000000  0.00000000  3.29000000
   6.58000000  0.00000000  0.00000000
  11.51500000 11.51500000  1.64500000
   8.22500000  1.64500000  1.64500000
   1.64500000  1.64500000  1.64500000
   8.22500000  4.93500000  4.93500000
   0.00000000  6.58000000  3.29000000
   3.29000000  6.58000000  0.00000000
   4.93500000  1.64500000  4.93500000
  11.51500000  1.64500000  1.64500000
   6.58000000  3.29000000  3.29000000
   6.58000000  6.58000000  3.29000000
  11.51500000  8.22500000  4.93500000
   9.87000000  3.29000000  3.29000000
   0.00000000  3.29000000  3.29000000
   1.64500000  4.93500000  1.64500000
   3.29000000  0.00000000  3.29000000
   8.22500000 11.51500000  4.93500000
   8.22500000  1.64500000  4.93500000
   8.22500000  8.22500000  1.64500000
   3.29000000  9.87000000  3.29000000
   4.93500000 11.51500000  1.64500000
  11.51500000 11.51500000  4.93500000
   9.87000000  9.87000000  3.29000000
   8.22500000  8.22500000  4.93500000
   9.87000000  3.29000000  0.00000000
  11.51500000  4.93500000  4.93500000
   3.29000000  3.29000000  3.29000000
   3.29000000  0.00000000  0.00000000
  11.51500000  8.22500000  1.64500000
   6.58000000  3.29000000  0.00000000
   6.58000000  9.87000000  0.00000000
   8.22500000  4.93500000  1.64500000
   9.87000000  6.58000000  0.00000000
  11.51500000  1.64500000  4.93500000
   4.93500000  8.22500000  1.64500000
   4.93500000  4.93500000  1.64500000
   0.00000000  9.87000000  0.00000000
   9.87000000  0.00000000  3.29000000
   3.29000000  9.87000000  0.00000000
   9.87000000  9.87000000  0.00000000
   6.58000000  0.00000000  3.29000000
   3.29000000  6.58000000  3.29000000
   4.93500000  4.93500000  4.93500000
   1.64500000 11.51500000  4.93500000
   1.64500000  1.64500000  4.93500000
 


--------------------------------------------------------------------------------------------------------


 k-point   1 :   0.0000 0.0000 0.0000  plane waves:   10181
 k-point   2 :   0.3333 0.0000 0.0000  plane waves:   10238
 k-point   3 :   0.0000 0.3333 0.0000  plane waves:   10238
 k-point   4 :   0.3333 0.3333 0.0000  plane waves:   10248
 k-point   5 :  -0.3333 0.3333 0.0000  plane waves:   10248
 k-point   6 :   0.0000 0.0000 0.2000  plane waves:   10193
 k-point   7 :   0.3333 0.0000 0.2000  plane waves:   10246
 k-point   8 :   0.0000 0.3333 0.2000  plane waves:   10246
 k-point   9 :  -0.3333 0.0000 0.2000  plane waves:   10246
 k-point  10 :   0.0000-0.3333 0.2000  plane waves:   10246
 k-point  11 :   0.3333 0.3333 0.2000  plane waves:   10238
 k-point  12 :  -0.3333 0.3333 0.2000  plane waves:   10238
 k-point  13 :  -0.3333-0.3333 0.2000  plane waves:   10238
 k-point  14 :   0.3333-0.3333 0.2000  plane waves:   10238
 k-point  15 :   0.0000 0.0000 0.4000  plane waves:   10201
 k-point  16 :   0.3333 0.0000 0.4000  plane waves:   10223
 k-point  17 :   0.0000 0.3333 0.4000  plane waves:   10223
 k-point  18 :  -0.3333 0.0000 0.4000  plane waves:   10223
 k-point  19 :   0.0000-0.3333 0.4000  plane waves:   10223
 k-point  20 :   0.3333 0.3333 0.4000  plane waves:   10193
 k-point  21 :  -0.3333 0.3333 0.4000  plane waves:   10193
 k-point  22 :  -0.3333-0.3333 0.4000  plane waves:   10193
 k-point  23 :   0.3333-0.3333 0.4000  plane waves:   10193

 maximum and minimum number of plane-waves per node :       880      830

 maximum number of plane-waves:     10248
 maximum index in each direction: 
   IXMAX=   17   IYMAX=   17   IZMAX=    8
   IXMIN=  -17   IYMIN=  -17   IZMIN=   -8


 parallel 3D FFT for wavefunctions:
    minimum data exchange during FFTs selected (reduces bandwidth)
 parallel 3D FFT for charge:
    minimum data exchange during FFTs selected (reduces bandwidth)


 total amount of memory used by VASP MPI-rank0    91701. kBytes
=======================================================================

   base      :      30000. kBytes
   nonl-proj :      12216. kBytes
   fftplans  :       1504. kBytes
   grid      :       2835. kBytes
   one-center:         93. kBytes
   wavefun   :      45053. kBytes
 
     INWAV:  cpu time      0.0000: real time      0.0000
 Broyden mixing: mesh for mixing (old mesh)
   NGX = 33   NGY = 33   NGZ = 17
  (NGX  =140   NGY  =140   NGZ  = 72)
  gives a total of  18513 points

 initial charge density was supplied:
 charge density of overlapping atoms calculated
 number of electron     847.0000000 magnetization 
 keeping initial charge density in first step


--------------------------------------------------------------------------------------------------------


 Maximum index for augmentation-charges          505 (set IRDMAX)


--------------------------------------------------------------------------------------------------------


 First call to EWALD:  gamma=   0.170
 Maximum number of real-space cells 2x 2x 4
 Maximum number of reciprocal cells 3x 3x 2

    FEWALD:  cpu time      0.1564: real time      0.1570


--------------------------------------- Iteration      1(   1)  ---------------------------------------


    POTLOK:  cpu time      0.0335: real time      0.0557
    SETDIJ:  cpu time      0.0051: real time      0.0053
     EDDAV:  cpu time     79.2033: real time     79.5911
       DOS:  cpu time      0.4412: real time      0.4429
    --------------------------------------------
      LOOP:  cpu time     79.6832: real time     80.0951

 eigenvalue-minimisations  : 23696
 total energy-change (2. order) : 0.8332577E+04  (-0.3302451E+05)
 number of electron     847.0000000 magnetization 
 augmentation part      847.0000000 magnetization 

 Free energy of the ion-electron system (eV)
  ---------------------------------------------------
  alpha Z        PSCENC =      7054.90209120
  Ewald energy   TEWEN  =    -89349.18683615
  -Hartree energ DENC   =    -17010.30289455
  -exchange      EXHF   =         0.00000000
  -V(xc)+E(xc)   XCENC  =      3480.94724879
  PAW double counting   =     83307.34307123   -82052.83360432
  entropy T*S    EENTRO =        -0.00411436
  eigenvalues    EBANDS =     -2247.53835382
  atomic energy  EATOM  =    105149.25033591
  Solvation  Ediel_sol  =         0.00000000
  ---------------------------------------------------
  free energy    TOTEN  =      8332.57694393 eV

  energy without entropy =     8332.58105829  energy(sigma->0) =     8332.57900111


--------------------------------------------------------------------------------------------------------




--------------------------------------- Iteration      1(   2)  ---------------------------------------


     EDDAV:  cpu time     81.3882: real time     81.7673
       DOS:  cpu time      0.6240: real time      0.6266
    --------------------------------------------
      LOOP:  cpu time     82.0123: real time     82.3939

 eigenvalue-minimisations  : 23396
 total energy-change (2. order) :-0.8247450E+04  (-0.8014387E+04)
 number of electron     847.0000000 magnetization 
 augmentation part      847.0000000 magnetization 

 Free energy of the ion-electron system (eV)
  ---------------------------------------------------
  alpha Z        PSCENC =      7054.90209120
  Ewald energy   TEWEN  =    -89349.18683615
  -Hartree energ DENC   =    -17010.30289455
  -exchange      EXHF   =         0.00000000
  -V(xc)+E(xc)   XCENC  =      3480.94724879
  PAW double counting   =     83307.34307123   -82052.83360432
  entropy T*S    EENTRO =        -0.00710783
  eigenvalues    EBANDS =    -10494.98503541
  atomic energy  EATOM  =    105149.25033591
  Solvation  Ediel_sol  =         0.00000000
  ---------------------------------------------------
  free energy    TOTEN  =        85.12726887 eV

  energy without entropy =       85.13437670  energy(sigma->0) =       85.13082278


--------------------------------------------------------------------------------------------------------




--------------------------------------- Iteration      1(   3)  ---------------------------------------


     EDDAV:  cpu time     72.3497: real time     72.6912
       DOS:  cpu time      0.3253: real time      0.3267
    --------------------------------------------
      LOOP:  cpu time     72.6750: real time     73.0179

 eigenvalue-minimisations  : 34880
 total energy-change (2. order) :-0.7888977E+03  (-0.7405698E+03)
 number of electron     847.0000000 magnetization 
 augmentation part      847.0000000 magnetization 

 Free energy of the ion-electron system (eV)
  ---------------------------------------------------
  alpha Z        PSCENC =      7054.90209120
  Ewald energy   TEWEN  =    -89349.18683615
  -Hartree energ DENC   =    -17010.30289455
  -exchange      EXHF   =         0.00000000
  -V(xc)+E(xc)   XCENC  =      3480.94724879
  PAW double counting   =     83307.34307123   -82052.83360432
  entropy T*S    EENTRO =        -0.00979024
  eigenvalues    EBANDS =    -11283.88001806
  atomic energy  EATOM  =    105149.25033591
  Solvation  Ediel_sol  =         0.00000000
  ---------------------------------------------------
  free energy    TOTEN  =      -703.77039619 eV

  energy without entropy =     -703.76060595  energy(sigma->0) =     -703.76550107


--------------------------------------------------------------------------------------------------------




--------------------------------------- Iteration      1(   4)  ---------------------------------------


     EDDAV:  cpu time     89.0856: real time     89.5171
       DOS:  cpu time      0.4583: real time      0.4602
    --------------------------------------------
      LOOP:  cpu time     89.5439: real time     89.9773

 eigenvalue-minimisations  : 36864
 total energy-change (2. order) :-0.6350303E+02  (-0.6108957E+02)
 number of electron     847.0000000 magnetization 
 augmentation part      847.0000000 magnetization 

 Free energy of the ion-electron system (eV)
  ---------------------------------------------------
  alpha Z        PSCENC =      7054.90209120
  Ewald energy   TEWEN  =    -89349.18683615
  -Hartree energ DENC   =    -17010.30289455
  -exchange      EXHF   =         0.00000000
  -V(xc)+E(xc)   XCENC  =      3480.94724879
  PAW double counting   =     83307.34307123   -82052.83360432
  entropy T*S    EENTRO =        -0.00983133
  eigenvalues    EBANDS =    -11347.38301128
  atomic energy  EATOM  =    105149.25033591
  Solvation  Ediel_sol  =         0.00000000
  ---------------------------------------------------
  free energy    TOTEN  =      -767.27343049 eV

  energy without entropy =     -767.26359916  energy(sigma->0) =     -767.26851483


--------------------------------------------------------------------------------------------------------




--------------------------------------- Iteration      1(   5)  ---------------------------------------


     EDDAV:  cpu time     51.8011: real time     52.0414
       DOS:  cpu time      0.2391: real time      0.2401
    CHARGE:  cpu time      0.7159: real time      0.7185
    MIXING:  cpu time      0.1733: real time      0.1742
    --------------------------------------------
      LOOP:  cpu time     52.9294: real time     53.1742

 eigenvalue-minimisations  : 36800
 total energy-change (2. order) :-0.3932324E+01  (-0.3892508E+01)
 number of electron     846.9999709 magnetization 
 augmentation part      165.0417284 magnetization 

 Broyden mixing:
  rms(total) = 0.10331E+02    rms(broyden)= 0.10329E+02
  rms(prec ) = 0.10658E+02
  weight for this iteration     100.00

 Free energy of the ion-electron system (eV)
  ---------------------------------------------------
  alpha Z        PSCENC =      7054.90209120
  Ewald energy   TEWEN  =    -89349.18683615
  -Hartree energ DENC   =    -17010.30289455
  -exchange      EXHF   =         0.00000000
  -V(xc)+E(xc)   XCENC  =      3480.94724879
  PAW double counting   =     83307.34307123   -82052.83360432
  entropy T*S    EENTRO =        -0.01048935
  eigenvalues    EBANDS =    -11351.31467703
  atomic energy  EATOM  =    105149.25033591
  Solvation  Ediel_sol  =         0.00000000
  ---------------------------------------------------
  free energy    TOTEN  =      -771.20575426 eV

  energy without entropy =     -771.19526491  energy(sigma->0) =     -771.20050959


--------------------------------------------------------------------------------------------------------




--------------------------------------- Iteration      1(   6)  ---------------------------------------


    POTLOK:  cpu time      0.0595: real time      0.0602
    SETDIJ:  cpu time      0.0049: real time      0.0049
     EDDAV:  cpu time     57.3774: real time     57.6461
       DOS:  cpu time      0.3857: real time      0.3872
    CHARGE:  cpu time      1.1861: real time      1.1907
    MIXING:  cpu time      0.2797: real time      0.2809
    --------------------------------------------
      LOOP:  cpu time     59.2932: real time     59.5700

 eigenvalue-minimisations  : 28496
 total energy-change (2. order) : 0.2807995E+02  (-0.9136323E+01)
 number of electron     846.9999706 magnetization 
 augmentation part      171.8333679 magnetization 

 Broyden mixing:
  rms(total) = 0.37817E+01    rms(broyden)= 0.37808E+01
  rms(prec ) = 0.47636E+01
  weight for this iteration     100.00

 eigenvalues of (default mixing * dielectric matrix)
  average eigenvalue GAMMA=   1.4270
  1.4270

 Free energy of the ion-electron system (eV)
  ---------------------------------------------------
  alpha Z        PSCENC =      7054.90209120
  Ewald energy   TEWEN  =    -89349.18683615
  -Hartree energ DENC   =    -16084.49968416
  -exchange      EXHF   =         0.00000000
  -V(xc)+E(xc)   XCENC  =      3435.36428689
  PAW double counting   =     97523.46842763   -96375.65215283
  entropy T*S    EENTRO =        -0.01161237
  eigenvalues    EBANDS =    -12096.76065846
  atomic energy  EATOM  =    105149.25033591
  Solvation  Ediel_sol  =         0.00000000
  ---------------------------------------------------
  free energy    TOTEN  =      -743.12580234 eV

  energy without entropy =     -743.11418997  energy(sigma->0) =     -743.11999616


--------------------------------------------------------------------------------------------------------




--------------------------------------- Iteration      1(   7)  ---------------------------------------


    POTLOK:  cpu time      0.3502: real time      0.3521
    SETDIJ:  cpu time      0.1871: real time      0.1879
     EDDAV:  cpu time     76.4019: real time     76.7703
       DOS:  cpu time      0.4518: real time      0.4535
    CHARGE:  cpu time      0.8833: real time      0.8863
    MIXING:  cpu time      0.2767: real time      0.2779
    --------------------------------------------
      LOOP:  cpu time     78.5510: real time     78.9280

 eigenvalue-minimisations  : 33456
 total energy-change (2. order) :-0.3141653E+02  (-0.1216565E+02)
 number of electron     846.9999692 magnetization 
 augmentation part      171.5828789 magnetization 

 Broyden mixing:
  rms(total) = 0.31825E+01    rms(broyden)= 0.31795E+01
  rms(prec ) = 0.92509E+01
  weight for this iteration     100.00

 eigenvalues of (default mixing * dielectric matrix)
  average eigenvalue GAMMA=   0.9701
  1.5389  0.4013

 Free energy of the ion-electron system (eV)
  ---------------------------------------------------
  alpha Z        PSCENC =      7054.90209120
  Ewald energy   TEWEN  =    -89349.18683615
  -Hartree energ DENC   =    -15833.12828999
  -exchange      EXHF   =         0.00000000
  -V(xc)+E(xc)   XCENC  =      3419.78731159
  PAW double counting   =    105539.12461729  -104424.45441348
  entropy T*S    EENTRO =        -0.01232260
  eigenvalues    EBANDS =    -12330.82482215
  atomic energy  EATOM  =    105149.25033591
  Solvation  Ediel_sol  =         0.00000000
  ---------------------------------------------------
  free energy    TOTEN  =      -774.54232837 eV

  energy without entropy =     -774.53000577  energy(sigma->0) =     -774.53616707


--------------------------------------------------------------------------------------------------------




--------------------------------------- Iteration      1(   8)  ---------------------------------------


    POTLOK:  cpu time      0.3990: real time      0.4011
    SETDIJ:  cpu time      0.2000: real time      0.2009
     EDDAV:  cpu time     85.2621: real time     85.6640
       DOS:  cpu time      0.4878: real time      0.4898
    CHARGE:  cpu time      0.7810: real time      0.7841
    MIXING:  cpu time      0.2540: real time      0.2552
    --------------------------------------------
      LOOP:  cpu time     87.3839: real time     87.7950

 eigenvalue-minimisations  : 33224
 total energy-change (2. order) : 0.4215136E+02  (-0.8656216E+01)
 number of electron     846.9999701 magnetization 
 augmentation part      172.9306442 magnetization 

 Broyden mixing:
  rms(total) = 0.11558E+01    rms(broyden)= 0.11511E+01
  rms(prec ) = 0.18313E+01
  weight for this iteration     100.00

 eigenvalues of (default mixing * dielectric matrix)
  average eigenvalue GAMMA=   0.8603
  1.6225  0.6701  0.2884

 Free energy of the ion-electron system (eV)
  ---------------------------------------------------
  alpha Z        PSCENC =      7054.90209120
  Ewald energy   TEWEN  =    -89349.18683615
  -Hartree energ DENC   =    -15672.16493388
  -exchange      EXHF   =         0.00000000
  -V(xc)+E(xc)   XCENC  =      3413.13317952
  PAW double counting   =    108443.94282602  -107347.16593993
  entropy T*S    EENTRO =        -0.01061401
  eigenvalues    EBANDS =    -12425.09107730
  atomic energy  EATOM  =    105149.25033591
  Solvation  Ediel_sol  =         0.00000000
  ---------------------------------------------------
  free energy    TOTEN  =      -732.39096861 eV

  energy without entropy =     -732.38035460  energy(sigma->0) =     -732.38566160


--------------------------------------------------------------------------------------------------------




--------------------------------------- Iteration      1(   9)  ---------------------------------------


    POTLOK:  cpu time      0.3890: real time      0.3910
    SETDIJ:  cpu time      0.2699: real time      0.2710
     EDDAV:  cpu time     61.4523: real time     61.7415
       DOS:  cpu time      0.6019: real time      0.6043
    CHARGE:  cpu time      0.7935: real time      0.7963
    MIXING:  cpu time      0.1406: real time      0.1412
    --------------------------------------------
      LOOP:  cpu time     63.6472: real time     63.9452

 eigenvalue-minimisations  : 31384
 total energy-change (2. order) : 0.7882154E-01  (-0.3543128E+01)
 number of electron     846.9999706 magnetization 
 augmentation part      173.2724278 magnetization 

 Broyden mixing:
  rms(total) = 0.85023E+00    rms(broyden)= 0.84798E+00
  rms(prec ) = 0.11082E+01
  weight for this iteration     100.00

 eigenvalues of (default mixing * dielectric matrix)
  average eigenvalue GAMMA=   0.8138
  1.5866  1.0440  0.2527  0.3719

[...]
 -0.016  -0.032   0.003   0.001  -0.002  -0.006  -0.009   0.003   3.369   0.044   0.111  -0.039   0.004  -1.422  -0.025  -0.049
 -0.000  -0.011   0.003  -0.001   0.001  -0.006   0.002  -0.010   0.044   3.390  -0.001  -0.021   0.003  -0.025  -1.429   0.000
 -0.002  -0.011   0.002   0.002  -0.002  -0.003  -0.002   0.001   0.111  -0.001   2.593   0.003   0.008  -0.047   0.000  -1.185
  0.001   0.010   0.001   0.001   0.002  -0.008  -0.004  -0.004  -0.039  -0.021   0.003   3.388   0.003   0.022  -0.010  -0.001
 -0.000  -0.010   0.002  -0.001   0.002  -0.004   0.001  -0.002   0.004   0.003   0.008   0.003   2.636  -0.001  -0.002  -0.004
  0.013   0.006  -0.002  -0.000   0.001   0.003   0.005  -0.002  -1.422  -0.025  -0.047   0.022  -0.001   0.612   0.013   0.021
  0.000   0.009  -0.002   0.000  -0.000   0.003  -0.002   0.006  -0.025  -1.429   0.000  -0.010  -0.002   0.013   0.615  -0.000
  0.002   0.003  -0.001  -0.002   0.001   0.001   0.001  -0.000  -0.049   0.000  -1.185  -0.001  -0.004   0.021  -0.000   0.548
 -0.001  -0.009  -0.000  -0.001  -0.001   0.005   0.003   0.002   0.023  -0.011  -0.001  -1.425  -0.002  -0.012   0.011   0.000
  0.000   0.005  -0.000   0.000  -0.001   0.002  -0.000   0.001  -0.001  -0.002  -0.004  -0.002  -1.193   0.000   0.001   0.003


------------------------ aborting loop because EDIFF is reached ----------------------------------------


    CHARGE:  cpu time      0.5160: real time      0.5178
    FORLOC:  cpu time      0.0046: real time      0.0046
    FORNL :  cpu time     17.1833: real time     17.2560
    STRESS:  cpu time     14.0885: real time     14.1401
    FORCOR:  cpu time      0.3571: real time      0.3585
    FORHAR:  cpu time      0.1266: real time      0.1271
    MIXING:  cpu time      0.6240: real time      0.6266
    OFIELD:  cpu time      0.0000: real time      0.0000

  FORCE on cell =-STRESS in cart. coord.  units (eV):
  Direction    XX          YY          ZZ          XY          YZ          ZX
  --------------------------------------------------------------------------------------
  Alpha Z  7054.90209  7054.90209  7054.90209
  Ewald  -29827.00316-29848.48826-29674.15364    53.28581   -28.25381     6.61502
  Hartree  5171.93625  5150.96995  5323.90952    47.91911   -21.66115     4.83710
  E(xc)   -3911.28092 -3911.23680 -3911.31224    -0.07266    -0.02122    -0.00027
  Local    6657.92551  6698.68079  6350.04266   -99.03114    46.75403   -11.31989
  n-local -1091.68540 -1088.62902 -1089.15409     0.50870     3.34804     0.67344
  augment  2334.53214  2334.27662  2334.57736    -0.50050     0.45344    -0.11742
  Kinetic 13501.52533 13500.49921 13502.26972    -1.89114    -0.55124    -0.93174
  Fock        0.00000     0.00000     0.00000     0.00000     0.00000     0.00000
  -------------------------------------------------------------------------------------
  Total    -109.14816  -109.02541  -108.91862     0.21817     0.06809    -0.24375
  in kB    -153.45792  -153.28534  -153.13521     0.30673     0.09573    -0.34271
  external pressure =     -153.29 kB  Pullay stress =        0.00 kB


 VOLUME and BASIS-vectors are now :
 -----------------------------------------------------------------------------
  energy-cutoff  :      250.00
  volume of cell :     1139.56
      direct lattice vectors                 reciprocal lattice vectors
    13.160000000  0.000000000  0.000000000     0.075987842  0.000000000  0.000000000
     0.000000000 13.160000000  0.000000000     0.000000000  0.075987842  0.000000000
     0.000000000  0.000000000  6.580000000     0.000000000  0.000000000  0.151975684

  length of vectors
    13.160000000 13.160000000  6.580000000     0.075987842  0.075987842  0.151975684


 FORCES acting on ions
    electron-ion (+dipol)            ewald-force                    non-local-force                 convergence-correction
 -----------------------------------------------------------------------------------------------
   0.222E+02 -.808E+02 -.205E+02   -.222E+02 0.811E+02 0.204E+02   0.681E-01 -.330E+00 0.862E-01   0.317E-04 -.144E-04 0.255E-04
   -.109E+03 -.120E+03 0.100E+02   0.108E+03 0.120E+03 -.977E+01   0.381E-02 0.131E+00 -.143E+00   -.449E-04 0.248E-05 -.149E-04
   0.179E+01 0.583E+02 -.369E+02   -.119E+01 -.586E+02 0.364E+02   -.113E+00 0.379E+00 0.179E+00   -.800E-06 0.435E-05 0.132E-04
   0.708E+02 0.174E+01 0.288E+02   -.711E+02 -.164E+01 -.285E+02   0.160E+00 0.280E+00 -.530E-01   0.359E-04 -.216E-04 -.378E-04
   -.387E+02 0.710E+02 0.282E+02   0.384E+02 -.710E+02 -.279E+02   0.105E+00 0.276E+00 -.837E-01   0.367E-04 0.522E-04 0.941E-05
   0.635E+02 -.527E+01 0.368E+02   -.636E+02 0.548E+01 -.364E+02   0.823E-01 -.380E-01 0.547E-01   0.617E-04 -.246E-04 0.388E-04
   -.217E+02 0.658E+02 -.188E+02   0.216E+02 -.659E+02 0.187E+02   -.473E-01 0.349E-01 -.753E-01   -.282E-04 0.618E-04 -.160E-04
   -.586E+02 0.862E+02 0.196E+02   0.588E+02 -.863E+02 -.191E+02   -.319E+00 0.263E+00 -.631E-01   0.443E-04 0.213E-04 0.145E-04
   -.561E+02 -.987E+02 0.285E+02   0.559E+02 0.987E+02 -.283E+02   0.126E+00 -.313E+00 -.107E-01   -.283E-04 -.259E-04 0.108E-04
   -.632E+02 0.615E+01 0.175E+02   0.631E+02 -.610E+01 -.174E+02   0.374E-01 0.118E+00 0.118E+00   -.166E-04 0.263E-05 0.423E-05
   0.848E+02 -.299E+02 -.279E+02   -.847E+02 0.302E+02 0.272E+02   0.137E+00 -.289E+00 0.210E+00   0.155E-04 -.543E-05 -.119E-04
   0.117E+02 0.128E+02 0.929E+00   -.119E+02 -.129E+02 -.940E+00   0.184E+00 -.904E-01 0.633E-01   0.471E-04 0.614E-05 -.838E-05
   0.532E+02 -.406E+02 -.958E+01   -.534E+02 0.407E+02 0.977E+01   0.833E-01 -.336E+00 -.665E-01   0.796E-05 0.198E-04 -.618E-05
   0.111E+03 -.390E+02 0.287E+02   -.111E+03 0.383E+02 -.285E+02   -.177E-01 0.148E+00 0.118E+00   0.349E-04 0.459E-04 -.383E-04
   0.884E+02 0.732E+02 0.948E+01   -.882E+02 -.723E+02 -.977E+01   0.227E+00 -.371E+00 0.235E+00   -.531E-05 -.377E-04 0.893E-05
   0.127E+02 -.634E+02 0.285E+02   -.123E+02 0.630E+02 -.283E+02   -.425E+00 0.229E+00 -.171E-01   0.230E-04 -.682E-04 0.516E-06
   0.187E+02 0.248E+02 0.268E+02   -.183E+02 -.243E+02 -.271E+02   -.126E+00 -.386E+00 0.183E+00   -.345E-04 -.192E-04 -.201E-04
   0.128E+02 -.801E+02 -.285E+02   -.126E+02 0.801E+02 0.283E+02   -.115E+00 -.356E+00 0.112E-01   0.238E-04 -.326E-04 -.937E-06
   0.788E+02 0.994E+02 -.947E+01   -.786E+02 -.988E+02 0.977E+01   -.483E-01 0.243E+00 -.244E+00   0.130E-05 -.396E-04 -.118E-04
   -.612E+02 0.559E+02 -.179E+02   0.612E+02 -.559E+02 0.174E+02   -.218E+00 0.475E-03 0.667E-01   -.463E-05 0.609E-04 0.105E-04
   0.563E+02 0.357E+02 -.274E+02   -.566E+02 -.361E+02 0.272E+02   0.603E-01 0.148E+00 0.479E-02   0.150E-04 0.200E-04 0.581E-05
   -.560E+02 0.426E+02 0.459E+02   0.555E+02 -.426E+02 -.452E+02   0.362E+00 0.229E+00 -.662E-01   -.968E-04 -.145E-04 0.305E-04
   0.485E+02 0.530E+02 0.208E+02   -.477E+02 -.534E+02 -.205E+02   -.421E+00 0.374E+00 0.304E-01   0.567E-04 0.206E-04 0.262E-04
   -.113E+03 -.248E+02 -.300E+02   0.113E+03 0.246E+02 0.300E+02   -.416E+00 -.682E-01 -.127E+00   -.284E-04 -.771E-04 -.458E-04
   0.814E+02 -.263E+02 -.309E+02   -.820E+02 0.267E+02 0.307E+02   0.479E+00 -.409E+00 -.108E-01   0.240E-04 -.208E-04 0.400E-04
   0.179E+02 -.781E+02 0.195E+02   -.173E+02 0.774E+02 -.193E+02   -.145E+00 0.325E+00 0.110E-01   -.136E-04 -.315E-05 -.270E-04
   -.776E+02 0.730E+02 -.208E+02   0.780E+02 -.733E+02 0.205E+02   -.358E+00 0.359E+00 -.800E-01   0.451E-04 0.339E-04 -.200E-04
   0.748E+02 0.194E+02 0.491E+02   -.754E+02 -.193E+02 -.487E+02   0.502E+00 0.110E+00 0.294E-01   -.434E-05 0.537E-05 0.437E-04
   -.104E+03 0.627E+02 -.105E+02   0.104E+03 -.621E+02 0.105E+02   -.709E-01 -.138E+00 0.629E-01   -.413E-04 -.801E-04 -.114E-04
   -.122E+03 -.150E+03 -.108E+02   0.122E+03 0.149E+03 0.105E+02   -.386E+00 -.537E+00 0.687E-01   -.469E-04 -.133E-04 0.104E-04
   0.919E+02 -.482E+02 0.392E+02   -.921E+02 0.483E+02 -.388E+02   0.649E-01 -.469E-01 -.572E-01   0.405E-04 -.256E-04 -.101E-04
   -.554E+01 -.188E+01 -.401E+02   0.551E+01 0.217E+01 0.402E+02   -.368E-02 -.321E+00 -.519E-01   -.225E-04 -.229E-04 0.199E-04
   0.104E+03 -.366E+02 -.306E+02   -.104E+03 0.358E+02 0.307E+02   0.906E-01 0.298E+00 -.186E+00   0.117E-04 0.344E-04 0.323E-04
   0.750E+02 -.297E+02 0.298E+02   -.749E+02 0.302E+02 -.293E+02   0.366E+00 -.282E+00 -.225E-01   0.276E-04 -.568E-05 0.173E-04
   -.429E+02 0.134E+03 0.377E+02   0.422E+02 -.134E+03 -.374E+02   0.369E+00 0.501E+00 -.448E-01   0.379E-04 0.487E-04 -.355E-04
   -.552E+02 0.576E+02 0.202E+02   0.552E+02 -.576E+02 -.202E+02   0.183E-01 0.447E-01 0.349E-02   -.202E-04 0.700E-04 0.185E-04
   -.592E+02 0.279E+02 -.389E+02   0.590E+02 -.277E+02 0.382E+02   0.188E-01 0.453E-01 -.533E-01   -.614E-04 -.137E-04 -.192E-04
   -.356E+02 -.617E+02 -.309E+02   0.357E+02 0.619E+02 0.305E+02   -.129E+00 -.342E+00 -.499E-01   -.263E-04 0.381E-04 0.635E-05
   -.296E+02 -.277E+02 0.151E+02   0.295E+02 0.277E+02 -.150E+02   -.665E-02 -.164E+00 -.348E-02   -.425E-05 -.116E-04 -.173E-04
   -.308E+02 0.501E+02 -.238E+02   0.306E+02 -.495E+02 0.236E+02   0.175E-01 -.332E+00 0.282E-02   0.156E-04 0.490E-04 -.638E-05
   0.495E+02 0.284E+02 0.232E+02   -.498E+02 -.287E+02 -.230E+02   0.105E+00 0.128E+00 0.539E-01   -.149E-04 0.200E-04 -.788E-05
   0.380E+02 0.848E+01 -.838E+01   -.377E+02 -.905E+01 0.856E+01   0.346E-01 0.432E+00 0.455E-01   0.120E-04 0.272E-04 0.572E-05
   -.356E+02 -.536E+02 0.309E+02   0.354E+02 0.536E+02 -.305E+02   0.218E+00 -.710E-01 0.903E-02   -.274E-04 0.293E-04 -.517E-05
   -.929E+01 0.953E+01 0.316E+02   0.960E+01 -.981E+01 -.316E+02   -.292E+00 0.287E+00 0.405E-01   -.167E-04 -.311E-04 -.185E-04
   0.498E+02 -.275E+01 -.312E+02   -.495E+02 0.282E+01 0.308E+02   -.186E+00 -.752E-01 -.147E+00   0.603E-04 -.253E-04 -.254E-04
   0.604E+01 0.149E+02 -.978E+00   -.606E+01 -.149E+02 0.101E+01   0.238E-01 0.167E+00 -.182E-01   0.569E-04 0.221E-05 0.487E-05
   -.493E+02 0.984E+02 -.377E+02   0.489E+02 -.978E+02 0.374E+02   -.499E-01 -.214E+00 -.104E+00   0.512E-04 0.451E-04 0.410E-04
   0.931E+02 -.523E+02 -.392E+02   -.931E+02 0.522E+02 0.388E+02   -.830E-02 -.573E-01 -.362E-01   0.463E-04 -.191E-05 0.132E-04
   -.120E+03 0.651E+02 0.104E+02   0.120E+03 -.645E+02 -.105E+02   0.246E-01 0.256E+00 -.815E-01   -.618E-04 -.911E-04 0.160E-04
   -.681E+02 0.400E+01 -.188E+02   0.682E+02 -.417E+01 0.188E+02   0.365E-01 0.253E-01 0.139E-01   -.124E-04 0.168E-04 -.377E-05
   -.968E+02 -.381E+02 0.302E+02   0.969E+02 0.380E+02 -.300E+02   -.481E+00 0.714E-02 0.613E-01   -.456E-04 -.805E-04 0.416E-04
   0.226E+02 -.358E+02 0.221E+02   -.228E+02 0.355E+02 -.219E+02   0.642E-01 0.260E+00 -.502E-01   0.379E-04 0.569E-05 -.273E-04
   0.895E+02 0.155E+02 -.491E+02   -.900E+02 -.154E+02 0.487E+02   0.287E+00 0.876E-01 -.144E+00   -.627E-05 0.237E-04 -.380E-04
   -.614E+02 -.126E+03 -.306E+02   0.613E+02 0.126E+03 0.304E+02   -.636E-01 -.486E+00 -.820E-01   -.342E-04 -.832E-05 -.122E-04
   -.465E+02 -.304E+02 0.205E+02   0.465E+02 0.301E+02 -.202E+02   0.873E-01 0.322E+00 0.595E-01   -.463E-04 -.911E-04 0.168E-04
   0.575E+02 -.385E+02 0.104E+02   -.577E+02 0.384E+02 -.105E+02   -.858E-01 -.180E+00 -.108E+00   0.669E-05 0.144E-04 0.675E-05
   0.136E+02 0.778E+02 -.290E+02   -.130E+02 -.780E+02 0.291E+02   -.333E+00 0.321E+00 0.659E-01   -.292E-04 0.182E-04 0.171E-04
   -.388E+02 -.341E+02 -.191E+02   0.387E+02 0.342E+02 0.191E+02   -.571E-01 0.104E+00 -.498E-02   -.246E-05 -.285E-04 0.156E-04
   0.494E+02 -.301E+01 0.108E+02   -.492E+02 0.315E+01 -.109E+02   0.591E-01 -.374E+00 -.806E-01   0.108E-04 0.420E-04 -.146E-04
   -.555E+02 0.806E+02 0.190E+02   0.555E+02 -.808E+02 -.188E+02   0.516E-01 0.368E+00 0.187E+00   -.146E-04 0.900E-04 -.157E-04
   0.166E+02 -.114E+03 -.195E+02   -.162E+02 0.114E+03 0.193E+02   0.126E-01 -.510E+00 -.102E+00   -.196E-04 -.254E-04 0.315E-04
   -.413E+02 -.433E+02 -.205E+02   0.410E+02 0.435E+02 0.202E+02   0.263E+00 -.309E+00 -.591E-01   -.617E-04 -.709E-04 -.183E-04
   0.335E+02 0.651E+02 0.395E+02   -.333E+02 -.654E+02 -.392E+02   0.959E-01 0.457E+00 0.119E+00   -.103E-04 0.520E-05 -.133E-04
   0.634E+02 0.352E+02 -.209E+02   -.630E+02 -.349E+02 0.205E+02   0.278E-01 -.333E+00 -.102E+00   0.363E-04 0.739E-04 -.194E-04
 -----------------------------------------------------------------------------------------------
   -.315E-01 0.226E-02 0.434E+00   -.110E-11 0.625E-12 -.163E-12   0.316E-01 -.243E-02 -.434E+00   0.235E-04 -.204E-04 0.192E-04
 
 
 POSITION                                       TOTAL-FORCE (eV/Angst)
 -----------------------------------------------------------------------------------
      9.87000      6.58000      3.29000         0.089954     -0.071821     -0.022782
      6.58000      6.58000      0.00000        -0.195688     -0.623853      0.113889
      1.64500     11.51500      1.64500         0.489207      0.095074     -0.299305
      0.00000      6.58000      0.00000        -0.151733      0.384017      0.228834
      4.93500     11.51500      4.93500        -0.126570      0.300517      0.211940
     11.51500      4.93500      1.64500        -0.017322      0.173300      0.503461
      8.22500     11.51500      1.64500        -0.209446     -0.073345     -0.107601
      4.93500      1.64500      1.64500        -0.132581      0.144843      0.412545
      4.93500      8.22500      4.93500        -0.013215     -0.355539      0.252327
      6.58000      9.87000      3.29000        -0.019855      0.164690      0.143420
      1.64500      4.93500      4.93500         0.241529     -0.013946     -0.489872
      3.29000      3.29000      0.00000         0.032213     -0.193964      0.052939
      0.00000      9.87000      3.29000        -0.117754     -0.229727      0.116166
      0.00000      3.29000      0.00000         0.116752     -0.545184      0.284586
      0.00000      0.00000      0.00000         0.363240      0.461692     -0.054155
      1.64500      8.22500      4.93500         0.029501     -0.181579      0.246252
      9.87000      0.00000      0.00000         0.229085      0.112148     -0.064231
      1.64500      8.22500      1.64500         0.027455     -0.331558     -0.248436
      0.00000      0.00000      3.29000         0.149727      0.844900      0.057076
      6.58000      0.00000      0.00000        -0.187652     -0.017806     -0.411032
     11.51500     11.51500      1.64500        -0.219711     -0.190460     -0.234541
      8.22500      1.64500      1.64500        -0.193408      0.266294      0.629075
      1.64500      1.64500      1.64500         0.381173      0.023918      0.306683
      8.22500      4.93500      4.93500        -0.234937     -0.221917     -0.127748
      0.00000      6.58000      3.29000        -0.084239     -0.005608     -0.219928
      3.29000      6.58000      0.00000         0.408765     -0.287515      0.272495
      4.93500      1.64500      4.93500        -0.030811      0.048450     -0.317236
     11.51500      1.64500      1.64500        -0.093881      0.250749      0.473968
      6.58000      3.29000      3.29000        -0.263827      0.447174      0.095777
      6.58000      6.58000      3.29000        -0.328288     -0.748619     -0.183425
     11.51500      8.22500      4.93500        -0.074678      0.041250      0.310457
      9.87000      3.29000      3.29000        -0.035944     -0.030671     -0.016675
      0.00000      3.29000      3.29000         0.228837     -0.562721     -0.101866
      1.64500      4.93500      1.64500         0.415613      0.163069      0.500773
      3.29000      0.00000      3.29000        -0.342876      0.441381      0.298473
      8.22500     11.51500      4.93500         0.048047      0.063372      0.046195
      8.22500      1.64500      4.93500        -0.220906      0.245102     -0.749653
      8.22500      8.22500      1.64500        -0.047201     -0.119180     -0.427250
      3.29000      9.87000      3.29000        -0.028565     -0.205354      0.041358
      4.93500     11.51500      1.64500        -0.144311      0.189973     -0.212204
     11.51500     11.51500      4.93500        -0.131249     -0.138748      0.271843
      9.87000      9.87000      3.29000         0.282926     -0.139255      0.226538
      8.22500      8.22500      4.93500        -0.034326     -0.083042      0.433507
      9.87000      3.29000      0.00000         0.018265      0.001232      0.043228
     11.51500      4.93500      4.93500         0.069418     -0.002628     -0.594582
      3.29000      3.29000      3.29000         0.005515      0.138946      0.015311
      3.29000      0.00000      0.00000        -0.480191      0.371423     -0.410946
     11.51500      8.22500      1.64500        -0.016549     -0.103837     -0.409517
      6.58000      3.29000      0.00000        -0.123521      0.815865     -0.165267
      6.58000      9.87000      0.00000         0.054583     -0.143906     -0.023089
      8.22500      4.93500      1.64500        -0.382572     -0.073650      0.187454
      9.87000      6.58000      0.00000        -0.083986     -0.011405      0.069988
     11.51500      1.64500      4.93500        -0.215156      0.171688     -0.591652
      4.93500      8.22500      1.64500        -0.213709     -0.251191     -0.213994
      4.93500      4.93500      1.64500         0.131141      0.035190      0.367503
      0.00000      9.87000      0.00000        -0.261930     -0.217892     -0.190705
      9.87000      0.00000      3.29000         0.235361      0.195524      0.234985
      3.29000      9.87000      0.00000        -0.071250      0.142329     -0.001682
      9.87000      9.87000      0.00000         0.235743     -0.233843     -0.172465
      6.58000      0.00000      3.29000         0.054786      0.197355      0.399687
      3.29000      6.58000      3.29000         0.422808     -0.584428     -0.386689
      4.93500      4.93500      4.93500         0.007746     -0.039861     -0.392168
      1.64500     11.51500      4.93500         0.366547      0.136132      0.413802
      1.64500      1.64500      4.93500         0.393899     -0.033543     -0.421842
 -----------------------------------------------------------------------------------
    total drift:                                0.000099     -0.000190      0.000011


--------------------------------------------------------------------------------------------------------



  FREE ENERGIE OF THE ION-ELECTRON SYSTEM (eV)
  ---------------------------------------------------
  free  energy   TOTEN  =      -732.03580406 eV

  energy  without entropy=     -732.02429985  energy(sigma->0) =     -732.03005195
 


--------------------------------------------------------------------------------------------------------


    POTLOK:  cpu time      0.3177: real time      0.3190


--------------------------------------------------------------------------------------------------------


     LOOP+:  cpu time   1547.2146: real time   1554.6762
    4ORBIT:  cpu time      0.0000: real time      0.0000

 total amount of memory used by VASP MPI-rank0    91701. kBytes
=======================================================================

   base      :      30000. kBytes
   nonl-proj :      12216. kBytes
   fftplans  :       1504. kBytes
   grid      :       2835. kBytes
   one-center:         93. kBytes
   wavefun   :      45053. kBytes
 
  
  
 General timing and accounting informations for this job:
 ========================================================
  
                  Total CPU time used (sec):     1670.492
                            User time (sec):     1647.600
                          System time (sec):       22.892
                         Elapsed time (sec):     1679.724
  
                   Maximum memory used (kb):      151796.
                   Average memory used (kb):          N/A
  
                          Minor page faults:        12886
                          Major page faults:            0
                 Voluntary context switches:          255
