 vasp.6.3.1 04May22 (build Jul 26 2022 04:02:40) complex                        
  
 executed on             LinuxIFC date 2023.11.30  03:13:41
 running on   48 total cores
 distrk:  each k-point on   48 cores,    1 groups
 distr:  one band on NCORE=  12 cores,    4 groups


--------------------------------------------------------------------------------------------------------


 INCAR:
   ISTART = 0
   NWRITE = 2
   PREC = Accurate
   ENCUT = 250
   GGA = PE
   NSW = 0
   ISIF = 2
   ISYM = 2
   NBLOCK = 1
   KBLOCK = 1
   IBRION = -1
   NELM = 80
   EDIFF = 1E-08
   EDIFFG = -0.01
   ALGO = Normal
   LDIAG = .TRUE.
   LREAL = .FALSE.
   ISMEAR = 0
   SIGMA = 0.02
   ICHARG = 2
   LPLANE = .TRUE.
   NPAR = 4
   LSCALU = .FALSE.
   NSIM = 4
   LWAVE = .FALSE.
   LCHARG = .FALSE.
   ICORELEVEL = 1

 POTCAR:    PAW_PBE Nb_sv 25May2007               
 POTCAR:    PAW_PBE Mo_sv 02Feb2006               
 POTCAR:    PAW_PBE Ta_pv 07Sep2000               
 POTCAR:    PAW_PBE W_sv 04Sep2015                
 POTCAR:    PAW_PBE Nb_sv 25May2007               
   SHA256 =  0e8fc07c9fcd1164cf2ade22d0399fd28f85e91cd773dfa6cf24839a48c95e24 Nb_sv/POTCAR          
   COPYR  = (c) Copyright 25May2007 Georg Kresse                                                    
   COPYR  = This file is part of the software VASP. Any use, copying, and all other rights are regul
   COPYR  = If you do not have a valid VASP license, you may not use, copy or distribute this file. 
   VRHFIN =Nb: 4p5s4d                                                                               
   LEXCH  = PE                                                                                      
   EATOM  =  1555.1913 eV,  114.3033 Ry                                                             
                                                                                                    
   TITEL  = PAW_PBE Nb_sv 25May2007                                                                 
   LULTRA =        F    use ultrasoft PP ?                                                          
   IUNSCR =        1    unscreen: 0-lin 1-nonlin 2-no                                               
   RPACOR =    1.800    partial core radius                                                         
   POMASS =   92.910; ZVAL   =   13.000    mass and valenz                                          
   RCORE  =    2.400    outmost cutoff radius                                                       
   RWIGS  =    2.400; RWIGS  =    1.270    wigner-seitz radius (au A)                               
   ENMAX  =  293.235; ENMIN  =  219.927 eV                                                          
   ICORE  =        3    local potential                                                             
   LCOR   =        T    correct aug charges                                                         
   LPAW   =        T    paw PP                                                                      
   EAUG   =  455.659                                                                                
   DEXC   =    0.000                                                                                
   RMAX   =    2.456    core radius for proj-oper                                                   
   RAUG   =    1.300    factor for augmentation sphere                                              
   RDEP   =    2.451    radius for radial grids                                                     
   RDEPT  =    1.956    core radius for aug-charge                                                  
                                                                                                    
   Atomic configuration                                                                             
   11 entries                                                                                       
     n  l   j            E        occ.                                                              
     1  0  0.50    -18805.2457   2.0000                                                             
     2  0  0.50     -2630.2869   2.0000                                                             
     2  1  1.50     -2348.4046   6.0000                                                             
     3  0  0.50      -438.8757   2.0000                                                             
     3  1  1.50      -346.7588   6.0000                                                             
     3  2  2.50      -196.2560  10.0000                                                             
     4  0  0.50       -58.3859   2.0000                                                             
     5  0  0.50        -3.9816   1.0000                                                             
     4  1  1.50       -34.5141   6.0000                                                             
     4  2  2.50        -3.0408   4.0000                                                             
     4  3  2.50        -1.3606   0.0000                                                             
   Description                                                                                      
     l       E           TYP  RCUT    TYP  RCUT                                                     
     0    -58.3859094     23  2.200                                                                 
     0     -3.9816262     23  2.200                                                                 
     1    -34.5140738     23  2.200                                                                 
     1     13.6058260     23  2.200                                                                 
     2     -3.0408010     23  2.200                                                                 
     2     -0.1283038     23  2.200                                                                 
     3     -1.3605826     23  2.400                                                                 
  local pseudopotential read in
  partial core-charges read in
  partial kinetic energy density read in
  atomic valenz-charges read in
  non local Contribution for L=           0  read in
    real space projection operators read in
  non local Contribution for L=           0  read in
    real space projection operators read in
  non local Contribution for L=           1  read in
    real space projection operators read in
  non local Contribution for L=           1  read in
    real space projection operators read in
  non local Contribution for L=           2  read in
    real space projection operators read in
  non local Contribution for L=           2  read in
    real space projection operators read in
    PAW grid and wavefunctions read in
 
   number of l-projection  operators is LMAX  =           6
   number of lm-projection operators is LMMAX =          18
 
 POTCAR:    PAW_PBE Mo_sv 02Feb2006               
   SHA256 =  2731df97e41766cc617548c5a8267718fdef1f509ac6bafa01e745abea2bdfaa Mo_sv/POTCAR          
   COPYR  = (c) Copyright 02Feb2006 Georg Kresse                                                    
   COPYR  = This file is part of the software VASP. Any use, copying, and all other rights are regul
   COPYR  = If you do not have a valid VASP license, you may not use, copy or distribute this file. 
   VRHFIN =Mo: 4p5s4d                                                                               
   LEXCH  = PE                                                                                      
   EATOM  =  1862.2866 eV,  136.8742 Ry                                                             
                                                                                                    
   TITEL  = PAW_PBE Mo_sv 02Feb2006                                                                 
   LULTRA =        F    use ultrasoft PP ?                                                          
   IUNSCR =        1    unscreen: 0-lin 1-nonlin 2-no                                               
   RPACOR =    2.200    partial core radius                                                         
   POMASS =   95.940; ZVAL   =   14.000    mass and valenz                                          
   RCORE  =    2.500    outmost cutoff radius                                                       
   RWIGS  =    2.750; RWIGS  =    1.455    wigner-seitz radius (au A)                               
   ENMAX  =  242.676; ENMIN  =  182.007 eV                                                          
   ICORE  =        3    local potential                                                             
   LCOR   =        T    correct aug charges                                                         
   LPAW   =        T    paw PP                                                                      
   EAUG   =  446.014                                                                                
   DEXC   =    0.000                                                                                
   RMAX   =    2.563    core radius for proj-oper                                                   
   RAUG   =    1.300    factor for augmentation sphere                                              
   RDEP   =    2.641    radius for radial grids                                                     
   RDEPT  =    2.031    core radius for aug-charge                                                  
                                                                                                    
   Atomic configuration                                                                             
   11 entries                                                                                       
     n  l   j            E        occ.                                                              
     1  0  0.50    -19819.0341   2.0000                                                             
     2  0  0.50     -2799.0127   2.0000                                                             
     2  1  1.50     -2502.0276   6.0000                                                             
     3  0  0.50      -476.4449   2.0000                                                             
     3  1  1.50      -379.1496   6.0000                                                             
     3  2  2.50      -220.9367  10.0000                                                             
     4  0  0.50       -64.3378   2.0000                                                             
     5  0  0.50        -4.0862   1.0000                                                             
     4  1  1.50       -38.4773   6.0000                                                             
     4  2  2.50        -3.7535   5.0000                                                             
     4  3  2.50        -1.3606   0.0000                                                             
   Description                                                                                      
     l       E           TYP  RCUT    TYP  RCUT                                                     
     0    -64.3377829     23  2.100                                                                 
     0     -4.0861640     23  2.400                                                                 
     1    -38.4772993     23  2.100                                                                 
     1     13.6058260     23  2.100                                                                 
     2     -3.7534941     23  2.400                                                                 
     2     -5.1140767     23  2.400                                                                 
     3     -4.0817478     23  2.500                                                                 
  local pseudopotential read in
  partial core-charges read in
  partial kinetic energy density read in
  atomic valenz-charges read in
  non local Contribution for L=           0  read in
    real space projection operators read in
  non local Contribution for L=           0  read in
    real space projection operators read in
  non local Contribution for L=           1  read in
    real space projection operators read in
  non local Contribution for L=           1  read in
    real space projection operators read in
  non local Contribution for L=           2  read in
    real space projection operators read in
  non local Contribution for L=           2  read in
    real space projection operators read in
    PAW grid and wavefunctions read in
 
   number of l-projection  operators is LMAX  =           6
   number of lm-projection operators is LMMAX =          18
 
 POTCAR:    PAW_PBE Ta_pv 07Sep2000               
   SHA256 =  00d0a14a36c127416459414afb8617d9754996fffa60a2465888e660b20a452f Ta_pv/POTCAR          
   COPYR  = (c) Copyright 07Sep2000 Georg Kresse                                                    
   COPYR  = This file is part of the software VASP. Any use, copying, and all other rights are regul
   COPYR  = If you do not have a valid VASP license, you may not use, copy or distribute this file. 
   VRHFIN =Ta:  5p6s5d                                                                              
   LEXCH  = PE                                                                                      
   EATOM  =  1047.1984 eV,   76.9669 Ry                                                             
                                                                                                    
   TITEL  = PAW_PBE Ta_pv 07Sep2000                                                                 
   LULTRA =        F    use ultrasoft PP ?                                                          
   IUNSCR =        1    unscreen: 0-lin 1-nonlin 2-no                                               
   RPACOR =    2.330    partial core radius                                                         
   POMASS =  180.948; ZVAL   =   11.000    mass and valenz                                          
   RCORE  =    2.500    outmost cutoff radius                                                       
   RWIGS  =    2.840; RWIGS  =    1.503    wigner-seitz radius (au A)                               
   ENMAX  =  223.667; ENMIN  =  167.750 eV                                                          
   RCLOC  =    2.205    cutoff for local pot                                                        
   LCOR   =        T    correct aug charges                                                         
   LPAW   =        T    paw PP                                                                      
   EAUG   =  377.421                                                                                
   DEXC   =    0.000                                                                                
   RMAX   =    2.551    core radius for proj-oper                                                   
   RAUG   =    1.300    factor for augmentation sphere                                              
   RDEP   =    2.526    radius for radial grids                                                     
   RDEPT  =    2.132    core radius for aug-charge                                                  
                                                                                                    
   Atomic configuration                                                                             
   15 entries                                                                                       
     n  l   j            E        occ.                                                              
     1  0  0.50    -67341.2801   2.0000                                                             
     2  0  0.50    -11566.9369   2.0000                                                             
     2  1  1.50    -10134.1175   6.0000                                                             
     3  0  0.50     -2648.5614   2.0000                                                             
     3  1  1.50     -2222.6006   6.0000                                                             
     3  2  2.50     -1726.3114  10.0000                                                             
     4  0  0.50      -538.6957   2.0000                                                             
     4  1  1.50      -399.0125   6.0000                                                             
     4  2  2.50      -220.3955  10.0000                                                             
     4  3  3.50       -23.0371  14.0000                                                             
     5  0  0.50       -71.2900   2.0000                                                             
     5  1  1.50       -37.8224   6.0000                                                             
     5  2  2.50        -2.6455   4.0000                                                             
     6  0  0.50        -4.9623   1.0000                                                             
     5  3  2.50        -1.3606   0.0000                                                             
   Description                                                                                      
     l       E           TYP  RCUT    TYP  RCUT                                                     
     1    -37.8224449     23  2.500                                                                 
     1      1.3605826     23  2.500                                                                 
     2     -2.6454718     23  2.500                                                                 
     2     -0.6258570     23  2.500                                                                 
     0     -4.9622674     23  2.500                                                                 
     0      4.7531427     23  2.500                                                                 
  local pseudopotential read in
  partial core-charges read in
  partial kinetic energy density read in
  atomic valenz-charges read in
  non local Contribution for L=           1  read in
    real space projection operators read in
  non local Contribution for L=           1  read in
    real space projection operators read in
  non local Contribution for L=           2  read in
    real space projection operators read in
  non local Contribution for L=           2  read in
    real space projection operators read in
  non local Contribution for L=           0  read in
    real space projection operators read in
  non local Contribution for L=           0  read in
    real space projection operators read in
    PAW grid and wavefunctions read in
 
   number of l-projection  operators is LMAX  =           6
   number of lm-projection operators is LMMAX =          18
 
 POTCAR:    PAW_PBE W_sv 04Sep2015                
   SHA256 =  931c2d770f65867ef30f3db3421922900fc0890ebac5c3e12f63b6a2064023d7 W_sv/POTCAR           
   COPYR  = (c) Copyright 04Sep2015 Georg Kresse                                                    
   COPYR  = This file is part of the software VASP. Any use, copying, and all other rights are regul
   COPYR  = If you do not have a valid VASP license, you may not use, copy or distribute this file. 
   VRHFIN =W : 5p6s5d                                                                               
   LEXCH  = PE                                                                                      
   EATOM  =  1865.5791 eV,  137.1162 Ry                                                             
                                                                                                    
   TITEL  = PAW_PBE W_sv 04Sep2015                                                                  
   LULTRA =        F    use ultrasoft PP ?                                                          
   IUNSCR =        1    unscreen: 0-lin 1-nonlin 2-no                                               
   RPACOR =    2.330    partial core radius                                                         
   POMASS =  183.850; ZVAL   =   14.000    mass and valenz                                          
   RCORE  =    2.500    outmost cutoff radius                                                       
   RWIGS  =    2.750; RWIGS  =    1.455    wigner-seitz radius (au A)                               
   ENMAX  =  223.057; ENMIN  =  167.293 eV                                                          
   ICORE  =        3    local potential                                                             
   LCOR   =        T    correct aug charges                                                         
   LPAW   =        T    paw PP                                                                      
   EAUG   =  373.438                                                                                
   DEXC   =    0.000                                                                                
   RMAX   =    2.565    core radius for proj-oper                                                   
   RAUG   =    1.300    factor for augmentation sphere                                              
   RDEP   =    2.539    radius for radial grids                                                     
   RDEPT  =    2.126    core radius for aug-charge                                                  
                                                                                                    
   Atomic configuration                                                                             
   15 entries                                                                                       
     n  l   j            E        occ.                                                              
     1  0  0.50    -69465.5834   2.0000                                                             
     2  0  0.50    -11986.2640   2.0000                                                             
     2  1  1.50    -10479.8613   6.0000                                                             
     3  0  0.50     -2759.0756   2.0000                                                             
     3  1  1.50     -2313.1855   6.0000                                                             
     3  2  2.50     -1801.1183  10.0000                                                             
     4  0  0.50      -567.6789   2.0000                                                             
     4  1  1.50      -421.4692   6.0000                                                             
     4  2  2.50      -236.3471  10.0000                                                             
     4  3  3.50       -31.2665  14.0000                                                             
     5  0  0.50       -77.1084   2.0000                                                             
     6  0  0.50        -5.1438   1.0000                                                             
     5  1  1.50       -41.3856   6.0000                                                             
     5  2  2.50        -3.3185   5.0000                                                             
     5  3  2.50        -1.3606   0.0000                                                             
   Description                                                                                      
     l       E           TYP  RCUT    TYP  RCUT                                                     
     0    -77.1084470     23  2.100                                                                 
     0     -5.1437956     23  2.300                                                                 
     1    -41.3855615     23  2.500                                                                 
     1     -2.7211652     23  2.500                                                                 
     2     -3.3185025     23  2.500                                                                 
     2     -1.5965151     23  2.500                                                                 
     3     -1.3605826     23  2.500                                                                 
  local pseudopotential read in
  partial core-charges read in
  partial kinetic energy density read in
  kinetic energy density of atom read in
  atomic valenz-charges read in
  non local Contribution for L=           0  read in
    real space projection operators read in
  non local Contribution for L=           0  read in
    real space projection operators read in
  non local Contribution for L=           1  read in
    real space projection operators read in
  non local Contribution for L=           1  read in
    real space projection operators read in
  non local Contribution for L=           2  read in
    real space projection operators read in
  non local Contribution for L=           2  read in
    real space projection operators read in
    PAW grid and wavefunctions read in
 
   number of l-projection  operators is LMAX  =           6
   number of lm-projection operators is LMMAX =          18
 
  PAW_PBE Nb_sv 25May2007               :
 energy of atom  1       EATOM=-1555.1913
 kinetic energy error for atom=    0.2155 (will be added to EATOM!!)
  PAW_PBE Mo_sv 02Feb2006               :
 energy of atom  2       EATOM=-1862.2866
 kinetic energy error for atom=    0.1102 (will be added to EATOM!!)
  PAW_PBE Ta_pv 07Sep2000               :
 energy of atom  3       EATOM=-1047.1984
 kinetic energy error for atom=    0.0394 (will be added to EATOM!!)
  PAW_PBE W_sv 04Sep2015                :
 energy of atom  4       EATOM=-1865.5791
 kinetic energy error for atom=    0.0589 (will be added to EATOM!!)
 
 
 POSCAR: Nb-Mo-Ta-W alloy
  positions in direct lattice
  No initial velocities read in
 exchange correlation table for  LEXCH =        8
   RHO(1)=    0.500       N(1)  =     2000
   RHO(2)=  100.500       N(2)  =     4000
 


--------------------------------------------------------------------------------------------------------


 ion  position               nearest neighbor table
   1  0.750  0.250  0.750-   2 2.85   3 2.85   4 2.85   6 2.85  12 2.85  14 2.85  15 2.85  16 2.85

   2  0.000  0.000  0.000-   1 2.85   5 2.85   7 2.85   8 2.85   9 2.85  10 2.85  11 2.85  13 2.85

   3  0.500  0.500  0.000-   1 2.85   5 2.85   7 2.85   8 2.85   9 2.85  10 2.85  11 2.85  13 2.85

   4  0.500  0.000  0.000-   1 2.85   5 2.85   7 2.85   8 2.85   9 2.85  10 2.85  11 2.85  13 2.85

   5  0.250  0.250  0.250-   2 2.85   3 2.85   4 2.85   6 2.85  12 2.85  14 2.85  15 2.85  16 2.85
                             8 3.29   8 3.29
   6  0.000  0.500  0.500-   1 2.85   5 2.85   7 2.85   8 2.85   9 2.85  10 2.85  11 2.85  13 2.85

   7  0.750  0.250  0.250-   2 2.85   3 2.85   4 2.85   6 2.85  12 2.85  14 2.85  15 2.85  16 2.85
                            13 3.29  13 3.29
   8  0.250  0.750  0.250-   2 2.85   3 2.85   4 2.85   6 2.85  12 2.85  14 2.85  15 2.85  16 2.85
                             9 3.29   5 3.29  13 3.29   9 3.29   5 3.29  13 3.29
   9  0.250  0.750  0.750-   2 2.85   3 2.85   4 2.85   6 2.85  12 2.85  14 2.85  15 2.85  16 2.85
                            10 3.29  11 3.29   8 3.29   8 3.29  11 3.29  10 3.29
  10  0.750  0.750  0.750-   2 2.85   3 2.85   4 2.85   6 2.85  12 2.85  14 2.85  15 2.85  16 2.85
                            13 3.29   9 3.29  13 3.29   9 3.29
  11  0.250  0.250  0.750-   2 2.85   3 2.85   4 2.85   6 2.85  12 2.85  14 2.85  15 2.85  16 2.85
                             9 3.29   9 3.29
  12  0.000  0.000  0.500-   1 2.85   5 2.85   7 2.85   8 2.85   9 2.85  10 2.85  11 2.85  13 2.85
                            16 3.29  16 3.29
  13  0.750  0.750  0.250-   2 2.85   3 2.85   4 2.85   6 2.85  12 2.85  14 2.85  15 2.85  16 2.85
                             8 3.29  10 3.29   7 3.29  10 3.29   7 3.29   8 3.29
  14  0.500  0.500  0.500-   1 2.85   5 2.85   7 2.85   8 2.85   9 2.85  10 2.85  11 2.85  13 2.85
                            16 3.29  16 3.29
  15  0.000  0.500  0.000-   1 2.85   5 2.85   7 2.85   8 2.85   9 2.85  10 2.85  11 2.85  13 2.85

  16  0.500  0.000  0.500-   1 2.85   5 2.85   7 2.85   8 2.85   9 2.85  10 2.85  11 2.85  13 2.85
                            12 3.29  14 3.29  14 3.29  12 3.29
 
  LATTYP: Found a simple cubic cell.
 ALAT       =     6.5800000000
  
  Lattice vectors:
  
 A1 = (   6.5800000000,   0.0000000000,   0.0000000000)
 A2 = (   0.0000000000,   6.5800000000,   0.0000000000)
 A3 = (   0.0000000000,   0.0000000000,   6.5800000000)


Analysis of symmetry for initial positions (statically):
=====================================================================
 Subroutine PRICEL returns:
 Original cell was already a primitive cell.
 

 Routine SETGRP: Setting up the symmetry group for a 
 simple cubic supercell.


 Subroutine GETGRP returns: Found  1 space group operations
 (whereof  1 operations were pure point group operations)
 out of a pool of 48 trial point group operations.


The static configuration has the point symmetry C_1 .


Analysis of symmetry for dynamics (positions and initial velocities):
=====================================================================
 Subroutine PRICEL returns:
 Original cell was already a primitive cell.
 

 Routine SETGRP: Setting up the symmetry group for a 
 simple cubic supercell.


 Subroutine GETGRP returns: Found  1 space group operations
 (whereof  1 operations were pure point group operations)
 out of a pool of 48 trial point group operations.


The dynamic configuration has the point symmetry C_1 .


 Subroutine INISYM returns: Found  1 space group operations
 (whereof  1 operations are pure point group operations),
 and found     1 'primitive' translations


----------------------------------------------------------------------------------------

                                     Primitive cell                                     

  volume of cell :     284.8903

  direct lattice vectors                    reciprocal lattice vectors
     6.580000000  0.000000000  0.000000000     0.151975684  0.000000000  0.000000000
     0.000000000  6.580000000  0.000000000     0.000000000  0.151975684  0.000000000
     0.000000000  0.000000000  6.580000000     0.000000000  0.000000000  0.151975684

  length of vectors
     6.580000000  6.580000000  6.580000000     0.151975684  0.151975684  0.151975684

  position of ions in fractional coordinates (direct lattice)
     0.750000000  0.250000000  0.750000000
     0.000000000  0.000000000  0.000000000
     0.500000000  0.500000000  0.000000000
     0.500000000  0.000000000  0.000000000
     0.250000000  0.250000000  0.250000000
     0.000000000  0.500000000  0.500000000
     0.750000000  0.250000000  0.250000000
     0.250000000  0.750000000  0.250000000
     0.250000000  0.750000000  0.750000000
     0.750000000  0.750000000  0.750000000
     0.250000000  0.250000000  0.750000000
     0.000000000  0.000000000  0.500000000
     0.750000000  0.750000000  0.250000000
     0.500000000  0.500000000  0.500000000
     0.000000000  0.500000000  0.000000000
     0.500000000  0.000000000  0.500000000

  ion indices of the primitive-cell ions
   primitive index   ion index
                 1           1
                 2           2
                 3           3
                 4           4
                 5           5
                 6           6
                 7           7
                 8           8
                 9           9
                10          10
                11          11
                12          12
                13          13
                14          14
                15          15
                16          16

----------------------------------------------------------------------------------------

 
 
 KPOINTS: K-Spacing Value to Generate K-Mesh: 0.03

Automatic generation of k-mesh.
 Grid dimensions read from file:
 generate k-points for:    5    5    5

 Generating k-lattice:

  Cartesian coordinates                     Fractional coordinates (reciprocal lattice)
     0.030395137  0.000000000  0.000000000     0.200000000  0.000000000  0.000000000
     0.000000000  0.030395137  0.000000000     0.000000000  0.200000000  0.000000000
     0.000000000  0.000000000  0.030395137     0.000000000  0.000000000  0.200000000

  Length of vectors
     0.030395137  0.030395137  0.030395137

  Shift w.r.t. Gamma in fractional coordinates (k-lattice)
     0.000000000  0.000000000  0.000000000

 
 Subroutine IBZKPT returns following result:
 ===========================================
 
 Found     63 irreducible k-points:
 
 Following reciprocal coordinates:
            Coordinates               Weight
  0.000000  0.000000  0.000000      1.000000
  0.200000  0.000000  0.000000      2.000000
  0.000000  0.200000  0.000000      2.000000
  0.000000  0.000000  0.200000      2.000000
  0.400000  0.000000  0.000000      2.000000
  0.000000  0.400000  0.000000      2.000000
  0.000000  0.000000  0.400000      2.000000
  0.200000  0.200000  0.000000      2.000000
  0.000000  0.200000  0.200000      2.000000
  0.200000  0.000000  0.200000      2.000000
 -0.200000  0.200000  0.000000      2.000000
 -0.200000  0.000000  0.200000      2.000000
  0.000000 -0.200000  0.200000      2.000000
  0.400000  0.200000  0.000000      2.000000
  0.000000  0.400000  0.200000      2.000000
  0.200000  0.000000  0.400000      2.000000
 -0.200000  0.400000  0.000000      2.000000
 -0.400000  0.000000  0.200000      2.000000
  0.000000  0.200000  0.400000      2.000000
  0.000000 -0.400000  0.200000      2.000000
 -0.200000  0.000000  0.400000      2.000000
  0.400000  0.000000  0.200000      2.000000
  0.000000 -0.200000  0.400000      2.000000
  0.400000 -0.200000  0.000000      2.000000
  0.200000  0.400000  0.000000      2.000000
  0.400000  0.400000  0.000000      2.000000
  0.000000  0.400000  0.400000      2.000000
  0.400000  0.000000  0.400000      2.000000
 -0.400000  0.400000  0.000000      2.000000
 -0.400000  0.000000  0.400000      2.000000
  0.000000 -0.400000  0.400000      2.000000
  0.200000  0.200000  0.200000      2.000000
 -0.200000  0.200000  0.200000      2.000000
 -0.200000 -0.200000  0.200000      2.000000
  0.200000 -0.200000  0.200000      2.000000
  0.400000  0.200000  0.200000      2.000000
  0.200000  0.400000  0.200000      2.000000
  0.200000  0.200000  0.400000      2.000000
 -0.200000  0.400000  0.200000      2.000000
 -0.400000  0.200000  0.200000      2.000000
 -0.200000  0.200000  0.400000      2.000000
 -0.400000 -0.200000  0.200000      2.000000
 -0.200000 -0.400000  0.200000      2.000000
 -0.200000 -0.200000  0.400000      2.000000
  0.200000 -0.400000  0.200000      2.000000
  0.400000 -0.200000  0.200000      2.000000
  0.200000 -0.200000  0.400000      2.000000
  0.400000  0.400000  0.200000      2.000000
  0.200000  0.400000  0.400000      2.000000
  0.400000  0.200000  0.400000      2.000000
 -0.400000  0.400000  0.200000      2.000000
 -0.400000  0.200000  0.400000      2.000000
 -0.200000  0.400000  0.400000      2.000000
 -0.400000 -0.400000  0.200000      2.000000
 -0.200000 -0.400000  0.400000      2.000000
 -0.400000 -0.200000  0.400000      2.000000
  0.400000 -0.400000  0.200000      2.000000
  0.400000 -0.200000  0.400000      2.000000
  0.200000 -0.400000  0.400000      2.000000
  0.400000  0.400000  0.400000      2.000000
 -0.400000  0.400000  0.400000      2.000000
 -0.400000 -0.400000  0.400000      2.000000
  0.400000 -0.400000  0.400000      2.000000
 
 Following cartesian coordinates:
            Coordinates               Weight
  0.000000  0.000000  0.000000      1.000000
  0.030395  0.000000  0.000000      2.000000
  0.000000  0.030395  0.000000      2.000000
  0.000000  0.000000  0.030395      2.000000
  0.060790  0.000000  0.000000      2.000000
  0.000000  0.060790  0.000000      2.000000
  0.000000  0.000000  0.060790      2.000000
  0.030395  0.030395  0.000000      2.000000
  0.000000  0.030395  0.030395      2.000000
  0.030395  0.000000  0.030395      2.000000
 -0.030395  0.030395  0.000000      2.000000
 -0.030395  0.000000  0.030395      2.000000
  0.000000 -0.030395  0.030395      2.000000
  0.060790  0.030395  0.000000      2.000000
  0.000000  0.060790  0.030395      2.000000
  0.030395  0.000000  0.060790      2.000000
 -0.030395  0.060790  0.000000      2.000000
 -0.060790  0.000000  0.030395      2.000000
  0.000000  0.030395  0.060790      2.000000
  0.000000 -0.060790  0.030395      2.000000
 -0.030395  0.000000  0.060790      2.000000
  0.060790  0.000000  0.030395      2.000000
  0.000000 -0.030395  0.060790      2.000000
  0.060790 -0.030395  0.000000      2.000000
  0.030395  0.060790  0.000000      2.000000
  0.060790  0.060790  0.000000      2.000000
  0.000000  0.060790  0.060790      2.000000
  0.060790  0.000000  0.060790      2.000000
 -0.060790  0.060790  0.000000      2.000000
 -0.060790  0.000000  0.060790      2.000000
  0.000000 -0.060790  0.060790      2.000000
  0.030395  0.030395  0.030395      2.000000
 -0.030395  0.030395  0.030395      2.000000
 -0.030395 -0.030395  0.030395      2.000000
  0.030395 -0.030395  0.030395      2.000000
  0.060790  0.030395  0.030395      2.000000
  0.030395  0.060790  0.030395      2.000000
  0.030395  0.030395  0.060790      2.000000
 -0.030395  0.060790  0.030395      2.000000
 -0.060790  0.030395  0.030395      2.000000
 -0.030395  0.030395  0.060790      2.000000
 -0.060790 -0.030395  0.030395      2.000000
 -0.030395 -0.060790  0.030395      2.000000
 -0.030395 -0.030395  0.060790      2.000000
  0.030395 -0.060790  0.030395      2.000000
  0.060790 -0.030395  0.030395      2.000000
  0.030395 -0.030395  0.060790      2.000000
  0.060790  0.060790  0.030395      2.000000
  0.030395  0.060790  0.060790      2.000000
  0.060790  0.030395  0.060790      2.000000
 -0.060790  0.060790  0.030395      2.000000
 -0.060790  0.030395  0.060790      2.000000
 -0.030395  0.060790  0.060790      2.000000
 -0.060790 -0.060790  0.030395      2.000000
 -0.030395 -0.060790  0.060790      2.000000
 -0.060790 -0.030395  0.060790      2.000000
  0.060790 -0.060790  0.030395      2.000000
  0.060790 -0.030395  0.060790      2.000000
  0.030395 -0.060790  0.060790      2.000000
  0.060790  0.060790  0.060790      2.000000
 -0.060790  0.060790  0.060790      2.000000
 -0.060790 -0.060790  0.060790      2.000000
  0.060790 -0.060790  0.060790      2.000000
 


--------------------------------------------------------------------------------------------------------




 Dimension of arrays:
   k-points           NKPTS =     63   k-points in BZ     NKDIM =     63   number of bands    NBANDS=    128
   number of dos      NEDOS =    301   number of ions     NIONS =     16
   non local maximal  LDIM  =      6   non local SUM 2l+1 LMDIM =     18
   total plane-waves  NPLWV =  46656
   max r-space proj   IRMAX =      1   max aug-charges    IRDMAX=   9546
   dimension x,y,z NGX =    36 NGY =   36 NGZ =   36
   dimension x,y,z NGXF=    72 NGYF=   72 NGZF=   72
   support grid    NGXF=    72 NGYF=   72 NGZF=   72
   ions per type =               6   1   2   7
   NGX,Y,Z   is equivalent  to a cutoff of   9.10,  9.10,  9.10 a.u.
   NGXF,Y,Z  is equivalent  to a cutoff of  18.19, 18.19, 18.19 a.u.

 SYSTEM =  unknown system                          
 POSCAR =  Nb-Mo-Ta-W alloy                        

 Startparameter for this run:
   NWRITE =      2    write-flag & timer
   PREC   = accura    normal or accurate (medium, high low for compatibility)
   ISTART =      0    job   : 0-new  1-cont  2-samecut
   ICHARG =      2    charge: 1-file 2-atom 10-const
   ISPIN  =      1    spin polarized calculation?
   LNONCOLLINEAR =      F non collinear calculations
   LSORBIT =      F    spin-orbit coupling
   INIWAV =      1    electr: 0-lowe 1-rand  2-diag
   LASPH  =      F    aspherical Exc in radial PAW
 Electronic Relaxation 1
   ENCUT  =  250.0 eV  18.37 Ry    4.29 a.u.   8.48  8.48  8.48*2*pi/ulx,y,z
   ENINI  =  250.0     initial cutoff
   ENAUG  =  455.7 eV  augmentation charge cutoff
   NELM   =     80;   NELMIN=  2; NELMDL= -5     # of ELM steps 
   EDIFF  = 0.1E-07   stopping-criterion for ELM
   LREAL  =      F    real-space projection
   NLSPLINE    = F    spline interpolate recip. space projectors
   LCOMPAT=      F    compatible to vasp.4.4
   GGA_COMPAT  = T    GGA compatible to vasp.4.4-vasp.4.6
   LMAXPAW     = -100 max onsite density
   LMAXMIX     =    2 max onsite mixed and CHGCAR
   VOSKOWN=      0    Vosko Wilk Nusair interpolation
   ROPT   =    0.00000   0.00000   0.00000   0.00000
 Ionic relaxation
   EDIFFG = -.1E-01   stopping-criterion for IOM
   NSW    =      0    number of steps for IOM
   NBLOCK =      1;   KBLOCK =      1    inner block; outer block 
   IBRION =     -1    ionic relax: 0-MD 1-quasi-New 2-CG
   NFREE  =      0    steps in history (QN), initial steepest desc. (CG)
   ISIF   =      2    stress and relaxation
   IWAVPR =     10    prediction:  0-non 1-charg 2-wave 3-comb
   ISYM   =      2    0-nonsym 1-usesym 2-fastsym
   LCORR  =      T    Harris-Foulkes like correction to forces

   POTIM  = 0.5000    time-step for ionic-motion
   TEIN   =    0.0    initial temperature
   TEBEG  =    0.0;   TEEND  =   0.0 temperature during run
   SMASS  =  -3.00    Nose mass-parameter (am)
   estimated Nose-frequenzy (Omega)   =  0.10E-29 period in steps = 0.13E+47 mass=  -0.989E-27a.u.
   SCALEE = 1.0000    scale energy and forces
   NPACO  =    256;   APACO  = 10.0  distance and # of slots for P.C.
   PSTRESS=    0.0 pullay stress

  Mass of Ions in am
   POMASS =  92.91 95.94180.95183.85
  Ionic Valenz
   ZVAL   =  13.00 14.00 11.00 14.00
  Atomic Wigner-Seitz radii
   RWIGS  =  -1.00 -1.00 -1.00 -1.00
  virtual crystal weights 
   VCA    =   1.00  1.00  1.00  1.00
   NELECT =     212.0000    total number of electrons
   NUPDOWN=      -1.0000    fix difference up-down

 DOS related values:
   EMIN   =  10.00;   EMAX   =-10.00  energy-range for DOS
   EFERMI =   0.00
   ISMEAR =     0;   SIGMA  =   0.02  broadening in eV -4-tet -1-fermi 0-gaus

 Electronic relaxation 2 (details)
   IALGO  =     38    algorithm
   LDIAG  =      T    sub-space diagonalisation (order eigenvalues)
   LSUBROT=      F    optimize rotation matrix (better conditioning)
   TURBO    =      0    0=normal 1=particle mesh
   IRESTART =      0    0=no restart 2=restart with 2 vectors
   NREBOOT  =      0    no. of reboots
   NMIN     =      0    reboot dimension
   EREF     =   0.00    reference energy to select bands
   IMIX   =      4    mixing-type and parameters
     AMIX     =   0.40;   BMIX     =  1.00
     AMIX_MAG =   1.60;   BMIX_MAG =  1.00
     AMIN     =   0.10
     WC   =   100.;   INIMIX=   1;  MIXPRE=   1;  MAXMIX= -45

 Intra band minimization:
   WEIMIN = 0.0000     energy-eigenvalue tresh-hold
   EBREAK =  0.20E-10  absolut break condition
   DEPER  =   0.30     relativ break condition  

   TIME   =   0.40     timestep for ELM

  volume/ion in A,a.u.               =      17.81       120.16
  Fermi-wavevector in a.u.,A,eV,Ry     =   1.483523  2.803452 29.944245  2.200840
  Thomas-Fermi vector in A             =   2.597174
 
 Write flags
   LWAVE        =      F    write WAVECAR
   LDOWNSAMPLE  =      F    k-point downsampling of WAVECAR
   LCHARG       =      F    write CHGCAR
   LVTOT        =      F    write LOCPOT, total local potential
   LVHAR        =      F    write LOCPOT, Hartree potential only
   LELF         =      F    write electronic localiz. function (ELF)
   LORBIT       =      0    0 simple, 1 ext, 2 COOP (PROOUT), +10 PAW based schemes


 Dipole corrections
   LMONO  =      F    monopole corrections only (constant potential shift)
   LDIPOL =      F    correct potential (dipole corrections)
   IDIPOL =      0    1-x, 2-y, 3-z, 4-all directions 
   EPSILON=  1.0000000 bulk dielectric constant

 Core level calculations are selected ICORELEVEL =  1
 Exchange correlation treatment:
   GGA     =    PE    GGA type
   LEXCH   =     8    internal setting for exchange type
   LIBXC   =     F    Libxc                    
   VOSKOWN =     0    Vosko Wilk Nusair interpolation
   LHFCALC =     F    Hartree Fock is set to
   LHFONE  =     F    Hartree Fock one center treatment
   AEXX    =    0.0000 exact exchange contribution

 Linear response parameters
   LEPSILON=     F    determine dielectric tensor
   LRPA    =     F    only Hartree local field effects (RPA)
   LNABLA  =     F    use nabla operator in PAW spheres
   LVEL    =     F    velocity operator in full k-point grid
   CSHIFT  =0.1000    complex shift for real part using Kramers Kronig
   OMEGAMAX=  -1.0    maximum frequency
   DEG_THRESHOLD= 0.2000000E-02 threshold for treating states as degnerate
   RTIME   =   -0.100 relaxation time in fs
  (WPLASMAI=    0.000 imaginary part of plasma frequency in eV, 0.658/RTIME)
   DFIELD  = 0.0000000 0.0000000 0.0000000 field for delta impulse in time
 
  Optional k-point grid parameters
   LKPOINTS_OPT  =     F    use optional k-point grid
   KPOINTS_OPT_MODE=     1    mode for optional k-point grid
 
 Orbital magnetization related:
   ORBITALMAG=     F  switch on orbital magnetization
   LCHIMAG   =     F  perturbation theory with respect to B field
   DQ        =  0.001000  dq finite difference perturbation B field
   LLRAUG    =     F  two centre corrections for induced B field



--------------------------------------------------------------------------------------------------------


 Static calculation
 charge density and potential will be updated during run
 non-spin polarized calculation
 Variant of blocked Davidson
 Davidson routine will perform the subspace rotation
 perform sub-space diagonalisation
    after iterative eigenvector-optimisation
 modified Broyden-mixing scheme, WC =      100.0
 initial mixing is a Kerker type mixing with AMIX =  0.4000 and BMIX =      1.0000
 Hartree-type preconditioning will be used
 using additional bands           22
 reciprocal scheme for non local part
 use partial core corrections
 calculate Harris-corrections to forces 
   (improved forces if not selfconsistent)
 use gradient corrections 
 use of overlap-Matrix (Vanderbilt PP)
 Gauss-broadening in eV      SIGMA  =   0.02


--------------------------------------------------------------------------------------------------------


  energy-cutoff  :      250.00
  volume of cell :      284.89
      direct lattice vectors                 reciprocal lattice vectors
     6.580000000  0.000000000  0.000000000     0.151975684  0.000000000  0.000000000
     0.000000000  6.580000000  0.000000000     0.000000000  0.151975684  0.000000000
     0.000000000  0.000000000  6.580000000     0.000000000  0.000000000  0.151975684

  length of vectors
     6.580000000  6.580000000  6.580000000     0.151975684  0.151975684  0.151975684


 
 k-points in units of 2pi/SCALE and weight: K-Spacing Value to Generate K-Mesh: 0.03
   0.00000000  0.00000000  0.00000000       0.008
   0.03039514  0.00000000  0.00000000       0.016
   0.00000000  0.03039514  0.00000000       0.016
   0.00000000  0.00000000  0.03039514       0.016
   0.06079027  0.00000000  0.00000000       0.016
   0.00000000  0.06079027  0.00000000       0.016
   0.00000000  0.00000000  0.06079027       0.016
   0.03039514  0.03039514  0.00000000       0.016
   0.00000000  0.03039514  0.03039514       0.016
   0.03039514  0.00000000  0.03039514       0.016
  -0.03039514  0.03039514  0.00000000       0.016
  -0.03039514  0.00000000  0.03039514       0.016
   0.00000000 -0.03039514  0.03039514       0.016
   0.06079027  0.03039514  0.00000000       0.016
   0.00000000  0.06079027  0.03039514       0.016
   0.03039514  0.00000000  0.06079027       0.016
  -0.03039514  0.06079027  0.00000000       0.016
  -0.06079027  0.00000000  0.03039514       0.016
   0.00000000  0.03039514  0.06079027       0.016
   0.00000000 -0.06079027  0.03039514       0.016
  -0.03039514  0.00000000  0.06079027       0.016
   0.06079027  0.00000000  0.03039514       0.016
   0.00000000 -0.03039514  0.06079027       0.016
   0.06079027 -0.03039514  0.00000000       0.016
   0.03039514  0.06079027  0.00000000       0.016
   0.06079027  0.06079027  0.00000000       0.016
   0.00000000  0.06079027  0.06079027       0.016
   0.06079027  0.00000000  0.06079027       0.016
  -0.06079027  0.06079027  0.00000000       0.016
  -0.06079027  0.00000000  0.06079027       0.016
   0.00000000 -0.06079027  0.06079027       0.016
   0.03039514  0.03039514  0.03039514       0.016
  -0.03039514  0.03039514  0.03039514       0.016
  -0.03039514 -0.03039514  0.03039514       0.016
   0.03039514 -0.03039514  0.03039514       0.016
   0.06079027  0.03039514  0.03039514       0.016
   0.03039514  0.06079027  0.03039514       0.016
   0.03039514  0.03039514  0.06079027       0.016
  -0.03039514  0.06079027  0.03039514       0.016
  -0.06079027  0.03039514  0.03039514       0.016
  -0.03039514  0.03039514  0.06079027       0.016
  -0.06079027 -0.03039514  0.03039514       0.016
  -0.03039514 -0.06079027  0.03039514       0.016
  -0.03039514 -0.03039514  0.06079027       0.016
   0.03039514 -0.06079027  0.03039514       0.016
   0.06079027 -0.03039514  0.03039514       0.016
   0.03039514 -0.03039514  0.06079027       0.016
   0.06079027  0.06079027  0.03039514       0.016
   0.03039514  0.06079027  0.06079027       0.016
   0.06079027  0.03039514  0.06079027       0.016
  -0.06079027  0.06079027  0.03039514       0.016
  -0.06079027  0.03039514  0.06079027       0.016
  -0.03039514  0.06079027  0.06079027       0.016
  -0.06079027 -0.06079027  0.03039514       0.016
  -0.03039514 -0.06079027  0.06079027       0.016
  -0.06079027 -0.03039514  0.06079027       0.016
   0.06079027 -0.06079027  0.03039514       0.016
   0.06079027 -0.03039514  0.06079027       0.016
   0.03039514 -0.06079027  0.06079027       0.016
   0.06079027  0.06079027  0.06079027       0.016
  -0.06079027  0.06079027  0.06079027       0.016
  -0.06079027 -0.06079027  0.06079027       0.016
   0.06079027 -0.06079027  0.06079027       0.016
 
 k-points in reciprocal lattice and weights: K-Spacing Value to Generate K-Mesh: 0.03
   0.00000000  0.00000000  0.00000000       0.008
   0.20000000  0.00000000  0.00000000       0.016
   0.00000000  0.20000000  0.00000000       0.016
   0.00000000  0.00000000  0.20000000       0.016
   0.40000000  0.00000000  0.00000000       0.016
   0.00000000  0.40000000  0.00000000       0.016
   0.00000000  0.00000000  0.40000000       0.016
   0.20000000  0.20000000  0.00000000       0.016
   0.00000000  0.20000000  0.20000000       0.016
   0.20000000  0.00000000  0.20000000       0.016
  -0.20000000  0.20000000  0.00000000       0.016
  -0.20000000  0.00000000  0.20000000       0.016
   0.00000000 -0.20000000  0.20000000       0.016
   0.40000000  0.20000000  0.00000000       0.016
   0.00000000  0.40000000  0.20000000       0.016
   0.20000000  0.00000000  0.40000000       0.016
  -0.20000000  0.40000000  0.00000000       0.016
  -0.40000000  0.00000000  0.20000000       0.016
   0.00000000  0.20000000  0.40000000       0.016
   0.00000000 -0.40000000  0.20000000       0.016
  -0.20000000  0.00000000  0.40000000       0.016
   0.40000000  0.00000000  0.20000000       0.016
   0.00000000 -0.20000000  0.40000000       0.016
   0.40000000 -0.20000000  0.00000000       0.016
   0.20000000  0.40000000  0.00000000       0.016
   0.40000000  0.40000000  0.00000000       0.016
   0.00000000  0.40000000  0.40000000       0.016
   0.40000000  0.00000000  0.40000000       0.016
  -0.40000000  0.40000000  0.00000000       0.016
  -0.40000000  0.00000000  0.40000000       0.016
   0.00000000 -0.40000000  0.40000000       0.016
   0.20000000  0.20000000  0.20000000       0.016
  -0.20000000  0.20000000  0.20000000       0.016
  -0.20000000 -0.20000000  0.20000000       0.016
   0.20000000 -0.20000000  0.20000000       0.016
   0.40000000  0.20000000  0.20000000       0.016
   0.20000000  0.40000000  0.20000000       0.016
   0.20000000  0.20000000  0.40000000       0.016
  -0.20000000  0.40000000  0.20000000       0.016
  -0.40000000  0.20000000  0.20000000       0.016
  -0.20000000  0.20000000  0.40000000       0.016
  -0.40000000 -0.20000000  0.20000000       0.016
  -0.20000000 -0.40000000  0.20000000       0.016
  -0.20000000 -0.20000000  0.40000000       0.016
   0.20000000 -0.40000000  0.20000000       0.016
   0.40000000 -0.20000000  0.20000000       0.016
   0.20000000 -0.20000000  0.40000000       0.016
   0.40000000  0.40000000  0.20000000       0.016
   0.20000000  0.40000000  0.40000000       0.016
   0.40000000  0.20000000  0.40000000       0.016
  -0.40000000  0.40000000  0.20000000       0.016
  -0.40000000  0.20000000  0.40000000       0.016
  -0.20000000  0.40000000  0.40000000       0.016
  -0.40000000 -0.40000000  0.20000000       0.016
  -0.20000000 -0.40000000  0.40000000       0.016
  -0.40000000 -0.20000000  0.40000000       0.016
   0.40000000 -0.40000000  0.20000000       0.016
   0.40000000 -0.20000000  0.40000000       0.016
   0.20000000 -0.40000000  0.40000000       0.016
   0.40000000  0.40000000  0.40000000       0.016
  -0.40000000  0.40000000  0.40000000       0.016
  -0.40000000 -0.40000000  0.40000000       0.016
   0.40000000 -0.40000000  0.40000000       0.016
 
 position of ions in fractional coordinates (direct lattice) 
   0.75000000  0.25000000  0.75000000
   0.00000000  0.00000000  0.00000000
   0.50000000  0.50000000  0.00000000
   0.50000000  0.00000000  0.00000000
   0.25000000  0.25000000  0.25000000
   0.00000000  0.50000000  0.50000000
   0.75000000  0.25000000  0.25000000
   0.25000000  0.75000000  0.25000000
   0.25000000  0.75000000  0.75000000
   0.75000000  0.75000000  0.75000000
   0.25000000  0.25000000  0.75000000
   0.00000000  0.00000000  0.50000000
   0.75000000  0.75000000  0.25000000
   0.50000000  0.50000000  0.50000000
   0.00000000  0.50000000  0.00000000
   0.50000000  0.00000000  0.50000000
 
 position of ions in cartesian coordinates  (Angst):
   4.93500000  1.64500000  4.93500000
   0.00000000  0.00000000  0.00000000
   3.29000000  3.29000000  0.00000000
   3.29000000  0.00000000  0.00000000
   1.64500000  1.64500000  1.64500000
   0.00000000  3.29000000  3.29000000
   4.93500000  1.64500000  1.64500000
   1.64500000  4.93500000  1.64500000
   1.64500000  4.93500000  4.93500000
   4.93500000  4.93500000  4.93500000
   1.64500000  1.64500000  4.93500000
   0.00000000  0.00000000  3.29000000
   4.93500000  4.93500000  1.64500000
   3.29000000  3.29000000  3.29000000
   0.00000000  3.29000000  0.00000000
   3.29000000  0.00000000  3.29000000
 


--------------------------------------------------------------------------------------------------------


 k-point   1 :   0.0000 0.0000 0.0000  plane waves:    2517
 k-point   2 :   0.2000 0.0000 0.0000  plane waves:    2545
 k-point   3 :   0.0000 0.2000 0.0000  plane waves:    2545
 k-point   4 :   0.0000 0.0000 0.2000  plane waves:    2545
 k-point   5 :   0.4000 0.0000 0.0000  plane waves:    2569
 k-point   6 :   0.0000 0.4000 0.0000  plane waves:    2569
 k-point   7 :   0.0000 0.0000 0.4000  plane waves:    2569
 k-point   8 :   0.2000 0.2000 0.0000  plane waves:    2562
 k-point   9 :   0.0000 0.2000 0.2000  plane waves:    2562
 k-point  10 :   0.2000 0.0000 0.2000  plane waves:    2562
 k-point  11 :  -0.2000 0.2000 0.0000  plane waves:    2562
 k-point  12 :  -0.2000 0.0000 0.2000  plane waves:    2562
 k-point  13 :   0.0000-0.2000 0.2000  plane waves:    2562
 k-point  14 :   0.4000 0.2000 0.0000  plane waves:    2566
 k-point  15 :   0.0000 0.4000 0.2000  plane waves:    2566
 k-point  16 :   0.2000 0.0000 0.4000  plane waves:    2566
 k-point  17 :  -0.2000 0.4000 0.0000  plane waves:    2566
 k-point  18 :  -0.4000 0.0000 0.2000  plane waves:    2566
 k-point  19 :   0.0000 0.2000 0.4000  plane waves:    2566
 k-point  20 :   0.0000-0.4000 0.2000  plane waves:    2566
 k-point  21 :  -0.2000 0.0000 0.4000  plane waves:    2566
 k-point  22 :   0.4000 0.0000 0.2000  plane waves:    2566
 k-point  23 :   0.0000-0.2000 0.4000  plane waves:    2566
 k-point  24 :   0.4000-0.2000 0.0000  plane waves:    2566
 k-point  25 :   0.2000 0.4000 0.0000  plane waves:    2566
 k-point  26 :   0.4000 0.4000 0.0000  plane waves:    2570
 k-point  27 :   0.0000 0.4000 0.4000  plane waves:    2570
 k-point  28 :   0.4000 0.0000 0.4000  plane waves:    2570
 k-point  29 :  -0.4000 0.4000 0.0000  plane waves:    2570
 k-point  30 :  -0.4000 0.0000 0.4000  plane waves:    2570
 k-point  31 :   0.0000-0.4000 0.4000  plane waves:    2570
 k-point  32 :   0.2000 0.2000 0.2000  plane waves:    2572
 k-point  33 :  -0.2000 0.2000 0.2000  plane waves:    2572
 k-point  34 :  -0.2000-0.2000 0.2000  plane waves:    2572
 k-point  35 :   0.2000-0.2000 0.2000  plane waves:    2572
 k-point  36 :   0.4000 0.2000 0.2000  plane waves:    2546
 k-point  37 :   0.2000 0.4000 0.2000  plane waves:    2546
 k-point  38 :   0.2000 0.2000 0.4000  plane waves:    2546
 k-point  39 :  -0.2000 0.4000 0.2000  plane waves:    2546
 k-point  40 :  -0.4000 0.2000 0.2000  plane waves:    2546
 k-point  41 :  -0.2000 0.2000 0.4000  plane waves:    2546
 k-point  42 :  -0.4000-0.2000 0.2000  plane waves:    2546
 k-point  43 :  -0.2000-0.4000 0.2000  plane waves:    2546
 k-point  44 :  -0.2000-0.2000 0.4000  plane waves:    2546
 k-point  45 :   0.2000-0.4000 0.2000  plane waves:    2546
 k-point  46 :   0.4000-0.2000 0.2000  plane waves:    2546
 k-point  47 :   0.2000-0.2000 0.4000  plane waves:    2546
 k-point  48 :   0.4000 0.4000 0.2000  plane waves:    2549
 k-point  49 :   0.2000 0.4000 0.4000  plane waves:    2549
 k-point  50 :   0.4000 0.2000 0.4000  plane waves:    2549
 k-point  51 :  -0.4000 0.4000 0.2000  plane waves:    2549
 k-point  52 :  -0.4000 0.2000 0.4000  plane waves:    2549
 k-point  53 :  -0.2000 0.4000 0.4000  plane waves:    2549
 k-point  54 :  -0.4000-0.4000 0.2000  plane waves:    2549
 k-point  55 :  -0.2000-0.4000 0.4000  plane waves:    2549
 k-point  56 :  -0.4000-0.2000 0.4000  plane waves:    2549
 k-point  57 :   0.4000-0.4000 0.2000  plane waves:    2549
 k-point  58 :   0.4000-0.2000 0.4000  plane waves:    2549
 k-point  59 :   0.2000-0.4000 0.4000  plane waves:    2549
 k-point  60 :   0.4000 0.4000 0.4000  plane waves:    2533
 k-point  61 :  -0.4000 0.4000 0.4000  plane waves:    2533
 k-point  62 :  -0.4000-0.4000 0.4000  plane waves:    2533
 k-point  63 :   0.4000-0.4000 0.4000  plane waves:    2533

 maximum and minimum number of plane-waves per node :       235      194

 maximum number of plane-waves:      2572
 maximum index in each direction: 
   IXMAX=    8   IYMAX=    8   IZMAX=    8
   IXMIN=   -8   IYMIN=   -8   IZMIN=   -8


 parallel 3D FFT for wavefunctions:
    minimum data exchange during FFTs selected (reduces bandwidth)
 parallel 3D FFT for charge:
    minimum data exchange during FFTs selected (reduces bandwidth)


 total amount of memory used by VASP MPI-rank0    48253. kBytes
=======================================================================

   base      :      30000. kBytes
   nonl-proj :       8332. kBytes
   fftplans  :        456. kBytes
   grid      :        919. kBytes
   one-center:         31. kBytes
   wavefun   :       8515. kBytes
 
     INWAV:  cpu time      0.0000: real time      0.0000
 Broyden mixing: mesh for mixing (old mesh)
   NGX = 17   NGY = 17   NGZ = 17
  (NGX  = 72   NGY  = 72   NGZ  = 72)
  gives a total of   4913 points

 initial charge density was supplied:
 charge density of overlapping atoms calculated
 number of electron     212.0000000 magnetization 
 keeping initial charge density in first step


--------------------------------------------------------------------------------------------------------


 Maximum index for augmentation-charges          517 (set IRDMAX)


--------------------------------------------------------------------------------------------------------


 First call to EWALD:  gamma=   0.269
 Maximum number of real-space cells 3x 3x 3
 Maximum number of reciprocal cells 3x 3x 3

    FEWALD:  cpu time      0.0012: real time      0.0012


--------------------------------------- Iteration      1(   1)  ---------------------------------------


    POTLOK:  cpu time      0.0711: real time      0.1228
    SETDIJ:  cpu time      0.0023: real time      0.0025
     EDDAV:  cpu time      2.9938: real time      3.0062
       DOS:  cpu time      0.0056: real time      0.0056
    --------------------------------------------
      LOOP:  cpu time      3.0729: real time      3.1372

 eigenvalue-minimisations  : 16328
 total energy-change (2. order) : 0.2091917E+04  (-0.8175119E+04)
 number of electron     212.0000000 magnetization 
 augmentation part      212.0000000 magnetization 

 Free energy of the ion-electron system (eV)
  ---------------------------------------------------
  alpha Z        PSCENC =      1811.26960260
  Ewald energy   TEWEN  =    -22410.91324854
  -Hartree energ DENC   =     -4162.93391642
  -exchange      EXHF   =         0.00000000
  -V(xc)+E(xc)   XCENC  =       856.23964397
  PAW double counting   =     20786.73749932   -20463.27176139
  entropy T*S    EENTRO =        -0.00072619
  eigenvalues    EBANDS =      -670.20045366
  atomic energy  EATOM  =     26344.99020741
  Solvation  Ediel_sol  =         0.00000000
  ---------------------------------------------------
  free energy    TOTEN  =      2091.91684710 eV

  energy without entropy =     2091.91757329  energy(sigma->0) =     2091.91721020


--------------------------------------------------------------------------------------------------------




--------------------------------------- Iteration      1(   2)  ---------------------------------------


     EDDAV:  cpu time      2.9700: real time      2.9824
       DOS:  cpu time      0.0065: real time      0.0065
    --------------------------------------------
      LOOP:  cpu time      2.9765: real time      2.9889

 eigenvalue-minimisations  : 16344
 total energy-change (2. order) :-0.2081357E+04  (-0.2023127E+04)
 number of electron     212.0000000 magnetization 
 augmentation part      212.0000000 magnetization 

 Free energy of the ion-electron system (eV)
  ---------------------------------------------------
  alpha Z        PSCENC =      1811.26960260
  Ewald energy   TEWEN  =    -22410.91324854
  -Hartree energ DENC   =     -4162.93391642
  -exchange      EXHF   =         0.00000000
  -V(xc)+E(xc)   XCENC  =       856.23964397
  PAW double counting   =     20786.73749932   -20463.27176139
  entropy T*S    EENTRO =        -0.00179296
  eigenvalues    EBANDS =     -2751.55685139
  atomic energy  EATOM  =     26344.99020741
  Solvation  Ediel_sol  =         0.00000000
  ---------------------------------------------------
  free energy    TOTEN  =        10.55938260 eV

  energy without entropy =       10.56117556  energy(sigma->0) =       10.56027908


--------------------------------------------------------------------------------------------------------




--------------------------------------- Iteration      1(   3)  ---------------------------------------


     EDDAV:  cpu time      3.9746: real time      3.9909
       DOS:  cpu time      0.0056: real time      0.0057
    --------------------------------------------
      LOOP:  cpu time      3.9803: real time      3.9966

 eigenvalue-minimisations  : 24064
 total energy-change (2. order) :-0.1924290E+03  (-0.1817108E+03)
 number of electron     212.0000000 magnetization 
 augmentation part      212.0000000 magnetization 

 Free energy of the ion-electron system (eV)
  ---------------------------------------------------
  alpha Z        PSCENC =      1811.26960260
  Ewald energy   TEWEN  =    -22410.91324854
  -Hartree energ DENC   =     -4162.93391642
  -exchange      EXHF   =         0.00000000
  -V(xc)+E(xc)   XCENC  =       856.23964397
  PAW double counting   =     20786.73749932   -20463.27176139
  entropy T*S    EENTRO =        -0.00215049
  eigenvalues    EBANDS =     -2943.98546910
  atomic energy  EATOM  =     26344.99020741
  Solvation  Ediel_sol  =         0.00000000
  ---------------------------------------------------
  free energy    TOTEN  =      -181.86959264 eV

  energy without entropy =     -181.86744215  energy(sigma->0) =     -181.86851740


--------------------------------------------------------------------------------------------------------




--------------------------------------- Iteration      1(   4)  ---------------------------------------


     EDDAV:  cpu time      4.1812: real time      4.1988
       DOS:  cpu time      0.0049: real time      0.0049
    --------------------------------------------
      LOOP:  cpu time      4.1861: real time      4.2037

 eigenvalue-minimisations  : 25032
 total energy-change (2. order) :-0.1384191E+02  (-0.1346154E+02)
 number of electron     212.0000000 magnetization 
 augmentation part      212.0000000 magnetization 

 Free energy of the ion-electron system (eV)
  ---------------------------------------------------
  alpha Z        PSCENC =      1811.26960260
  Ewald energy   TEWEN  =    -22410.91324854
  -Hartree energ DENC   =     -4162.93391642
  -exchange      EXHF   =         0.00000000
  -V(xc)+E(xc)   XCENC  =       856.23964397
  PAW double counting   =     20786.73749932   -20463.27176139
  entropy T*S    EENTRO =        -0.00212102
  eigenvalues    EBANDS =     -2957.82740748
  atomic energy  EATOM  =     26344.99020741
  Solvation  Ediel_sol  =         0.00000000
  ---------------------------------------------------
  free energy    TOTEN  =      -195.71150156 eV

  energy without entropy =     -195.70938053  energy(sigma->0) =     -195.71044105


--------------------------------------------------------------------------------------------------------




--------------------------------------- Iteration      1(   5)  ---------------------------------------


     EDDAV:  cpu time      4.2628: real time      4.2932
       DOS:  cpu time      0.0051: real time      0.0052
    CHARGE:  cpu time      0.0854: real time      0.0857
    MIXING:  cpu time      0.0003: real time      0.0003
    --------------------------------------------
      LOOP:  cpu time      4.3537: real time      4.3843

 eigenvalue-minimisations  : 25736
 total energy-change (2. order) :-0.8523907E+00  (-0.8464997E+00)
 number of electron     211.9999874 magnetization 
 augmentation part       44.6641705 magnetization 

 Broyden mixing:
  rms(total) = 0.54619E+01    rms(broyden)= 0.54610E+01
  rms(prec ) = 0.59652E+01
  weight for this iteration     100.00

 Free energy of the ion-electron system (eV)
  ---------------------------------------------------
  alpha Z        PSCENC =      1811.26960260
  Ewald energy   TEWEN  =    -22410.91324854
  -Hartree energ DENC   =     -4162.93391642
  -exchange      EXHF   =         0.00000000
  -V(xc)+E(xc)   XCENC  =       856.23964397
  PAW double counting   =     20786.73749932   -20463.27176139
  entropy T*S    EENTRO =        -0.00242027
  eigenvalues    EBANDS =     -2958.67949898
  atomic energy  EATOM  =     26344.99020741
  Solvation  Ediel_sol  =         0.00000000
  ---------------------------------------------------
  free energy    TOTEN  =      -196.56389229 eV

  energy without entropy =     -196.56147203  energy(sigma->0) =     -196.56268216


--------------------------------------------------------------------------------------------------------




--------------------------------------- Iteration      1(   6)  ---------------------------------------


    POTLOK:  cpu time      0.0051: real time      0.0052
    SETDIJ:  cpu time      0.0019: real time      0.0019
     EDDAV:  cpu time      3.3411: real time      3.3556
       DOS:  cpu time      0.0057: real time      0.0057
    CHARGE:  cpu time      0.0854: real time      0.0857
    MIXING:  cpu time      0.0003: real time      0.0003
    --------------------------------------------
      LOOP:  cpu time      3.4395: real time      3.4544

 eigenvalue-minimisations  : 19248
 total energy-change (2. order) : 0.7667931E+01  (-0.1829819E+01)
 number of electron     211.9999871 magnetization 
 augmentation part       46.1222409 magnetization 

 Broyden mixing:
  rms(total) = 0.20264E+01    rms(broyden)= 0.20261E+01
  rms(prec ) = 0.23932E+01
  weight for this iteration     100.00

 eigenvalues of (default mixing * dielectric matrix)
  average eigenvalue GAMMA=   1.5135
  1.5135

 Free energy of the ion-electron system (eV)
  ---------------------------------------------------
  alpha Z        PSCENC =      1811.26960260
  Ewald energy   TEWEN  =    -22410.91324854
  -Hartree energ DENC   =     -3941.91320988
  -exchange      EXHF   =         0.00000000
  -V(xc)+E(xc)   XCENC  =       845.33328205
  PAW double counting   =     25017.94826694   -24720.87027228
  entropy T*S    EENTRO =        -0.00231580
  eigenvalues    EBANDS =     -3134.73827358
  atomic energy  EATOM  =     26344.99020741
  Solvation  Ediel_sol  =         0.00000000
  ---------------------------------------------------
  free energy    TOTEN  =      -188.89596108 eV

  energy without entropy =     -188.89364528  energy(sigma->0) =     -188.89480318


--------------------------------------------------------------------------------------------------------




--------------------------------------- Iteration      1(   7)  ---------------------------------------


    POTLOK:  cpu time      0.0044: real time      0.0046
    SETDIJ:  cpu time      0.0018: real time      0.0018
     EDDAV:  cpu time      3.8492: real time      3.8649
       DOS:  cpu time      0.0055: real time      0.0055
    CHARGE:  cpu time      0.0856: real time      0.0859
    MIXING:  cpu time      0.0003: real time      0.0003
    --------------------------------------------
      LOOP:  cpu time      3.9467: real time      3.9629

 eigenvalue-minimisations  : 23144
 total energy-change (2. order) : 0.2955743E+00  (-0.1406371E+01)
 number of electron     211.9999873 magnetization 
 augmentation part       46.2315209 magnetization 

 Broyden mixing:
  rms(total) = 0.84046E+00    rms(broyden)= 0.84014E+00
  rms(prec ) = 0.20600E+01
  weight for this iteration     100.00

 eigenvalues of (default mixing * dielectric matrix)
  average eigenvalue GAMMA=   1.0760
  1.5973  0.5546

 Free energy of the ion-electron system (eV)
  ---------------------------------------------------
  alpha Z        PSCENC =      1811.26960260
  Ewald energy   TEWEN  =    -22410.91324854
  -Hartree energ DENC   =     -3847.67393942
  -exchange      EXHF   =         0.00000000
  -V(xc)+E(xc)   XCENC  =       840.26448508
  PAW double counting   =     27893.77899620   -27609.03121164
  entropy T*S    EENTRO =        -0.00195023
  eigenvalues    EBANDS =     -3211.28332819
  atomic energy  EATOM  =     26344.99020741
  Solvation  Ediel_sol  =         0.00000000
  ---------------------------------------------------
  free energy    TOTEN  =      -188.60038674 eV

  energy without entropy =     -188.59843651  energy(sigma->0) =     -188.59941163


--------------------------------------------------------------------------------------------------------




--------------------------------------- Iteration      1(   8)  ---------------------------------------


    POTLOK:  cpu time      0.0044: real time      0.0046
    SETDIJ:  cpu time      0.0017: real time      0.0017
     EDDAV:  cpu time      3.5505: real time      3.5649
       DOS:  cpu time      0.0054: real time      0.0054
    CHARGE:  cpu time      0.0847: real time      0.0850
    MIXING:  cpu time      0.0003: real time      0.0003
    --------------------------------------------
      LOOP:  cpu time      3.6470: real time      3.6620

 eigenvalue-minimisations  : 20864
 total energy-change (2. order) : 0.1488426E+01  (-0.6439651E+00)
 number of electron     211.9999872 magnetization 
 augmentation part       46.5167192 magnetization 

 Broyden mixing:
  rms(total) = 0.34716E+00    rms(broyden)= 0.34663E+00
  rms(prec ) = 0.52572E+00
  weight for this iteration     100.00

 eigenvalues of (default mixing * dielectric matrix)
  average eigenvalue GAMMA=   1.0586
  1.6296  1.1108  0.4352

 Free energy of the ion-electron system (eV)
  ---------------------------------------------------
  alpha Z        PSCENC =      1811.26960260
  Ewald energy   TEWEN  =    -22410.91324854
  -Hartree energ DENC   =     -3821.35734461
  -exchange      EXHF   =         0.00000000
  -V(xc)+E(xc)   XCENC  =       839.15930612
  PAW double counting   =     28514.18266626   -28232.21741728
  entropy T*S    EENTRO =        -0.00121844
  eigenvalues    EBANDS =     -3232.22451402
  atomic energy  EATOM  =     26344.99020741
  Solvation  Ediel_sol  =         0.00000000
  ---------------------------------------------------
  free energy    TOTEN  =      -187.11196051 eV

  energy without entropy =     -187.11074207  energy(sigma->0) =     -187.11135129


--------------------------------------------------------------------------------------------------------




--------------------------------------- Iteration      1(   9)  ---------------------------------------


    POTLOK:  cpu time      0.0044: real time      0.0045
    SETDIJ:  cpu time      0.0017: real time      0.0017
     EDDAV:  cpu time      3.7615: real time      3.7767
       DOS:  cpu time      0.0051: real time      0.0051
    CHARGE:  cpu time      0.0855: real time      0.0858
    MIXING:  cpu time      0.0003: real time      0.0003
    --------------------------------------------
      LOOP:  cpu time      3.8585: real time      3.8742

 eigenvalue-minimisations  : 22272
 total energy-change (2. order) :-0.9485464E-02  (-0.9539821E-01)
 number of electron     211.9999873 magnetization 
 augmentation part       46.4927243 magnetization 

 Broyden mixing:
  rms(total) = 0.26199E+00    rms(broyden)= 0.26191E+00
  rms(prec ) = 0.36787E+00
  weight for this iteration     100.00

 eigenvalues of (default mixing * dielectric matrix)
  average eigenvalue GAMMA=   1.1663
  1.9338  1.7820  0.5658  0.3835

 Free energy of the ion-electron system (eV)
  ---------------------------------------------------
  alpha Z        PSCENC =      1811.26960260
  Ewald energy   TEWEN  =    -22410.91324854
  -Hartree energ DENC   =     -3820.85283924
  -exchange      EXHF   =         0.00000000
  -V(xc)+E(xc)   XCENC  =       839.14680750
  PAW double counting   =     28699.76483305   -28416.89856669
  entropy T*S    EENTRO =        -0.00146013
  eigenvalues    EBANDS =     -3233.62678194
  atomic energy  EATOM  =     26344.99020741
  Solvation  Ediel_sol  =         0.00000000
  ---------------------------------------------------
  free energy    TOTEN  =      -187.12144598 eV

  energy without entropy =     -187.11998585  energy(sigma->0) =     -187.12071591


--------------------------------------------------------------------------------------------------------




--------------------------------------- Iteration      1(  10)  ---------------------------------------


    POTLOK:  cpu time      0.0046: real time      0.0048
    SETDIJ:  cpu time      0.0018: real time      0.0018
     EDDAV:  cpu time      3.6217: real time      3.6367
       DOS:  cpu time      0.0051: real time      0.0051
    CHARGE:  cpu time      0.0855: real time      0.0857
    MIXING:  cpu time      0.0003: real time      0.0003
    --------------------------------------------
      LOOP:  cpu time      3.7190: real time      3.7345

 eigenvalue-minimisations  : 21480
 total energy-change (2. order) : 0.1098856E-01  (-0.2429232E-01)
 number of electron     211.9999873 magnetization 
 augmentation part       46.4643005 magnetization 

 Broyden mixing:
  rms(total) = 0.11169E+00    rms(broyden)= 0.11162E+00
  rms(prec ) = 0.22923E+00
  weight for this iteration     100.00

 eigenvalues of (default mixing * dielectric matrix)
  average eigenvalue GAMMA=   1.1626
  2.4849  1.7007  0.7978  0.4346  0.3948

 Free energy of the ion-electron system (eV)
  ---------------------------------------------------
  alpha Z        PSCENC =      1811.26960260
  Ewald energy   TEWEN  =    -22410.91324854
  -Hartree energ DENC   =     -3823.65023300
  -exchange      EXHF   =         0.00000000
  -V(xc)+E(xc)   XCENC  =       839.26234969
  PAW double counting   =     28884.48433084   -28599.17123936
  entropy T*S    EENTRO =        -0.00117474
  eigenvalues    EBANDS =     -3233.38105231
  atomic energy  EATOM  =     26344.99020741
  Solvation  Ediel_sol  =         0.00000000
  ---------------------------------------------------
  free energy    TOTEN  =      -187.11045742 eV

  energy without entropy =     -187.10928268  energy(sigma->0) =     -187.10987005


--------------------------------------------------------------------------------------------------------




--------------------------------------- Iteration      1(  11)  ---------------------------------------


    POTLOK:  cpu time      0.0044: real time      0.0046
    SETDIJ:  cpu time      0.0018: real time      0.0018
     EDDAV:  cpu time      3.5878: real time      3.6022
       DOS:  cpu time      0.0049: real time      0.0049
    CHARGE:  cpu time      0.0841: real time      0.0844
    MIXING:  cpu time      0.0004: real time      0.0004
    --------------------------------------------
      LOOP:  cpu time      3.6833: real time      3.6982

 eigenvalue-minimisations  : 21208
 total energy-change (2. order) : 0.9343852E-02  (-0.1055267E-01)
 number of electron     211.9999874 magnetization 
 augmentation part       46.4133872 magnetization 

 Broyden mixing:
  rms(total) = 0.43048E-01    rms(broyden)= 0.42952E-01
  rms(prec ) = 0.10115E+00
  weight for this iteration     100.00

 eigenvalues of (default mixing * dielectric matrix)
  average eigenvalue GAMMA=   1.0662
  2.4792  1.6743  0.9396  0.5017  0.4511  0.3510

 Free energy of the ion-electron system (eV)
  ---------------------------------------------------
  alpha Z        PSCENC =      1811.26960260
  Ewald energy   TEWEN  =    -22410.91324854
  -Hartree energ DENC   =     -3825.73728270
  -exchange      EXHF   =         0.00000000
  -V(xc)+E(xc)   XCENC  =       839.35083937
  PAW double counting   =     28968.89823416   -28681.98003055
  entropy T*S    EENTRO =        -0.00133432
  eigenvalues    EBANDS =     -3232.97810100
  atomic energy  EATOM  =     26344.99020741
  Solvation  Ediel_sol  =         0.00000000
  ---------------------------------------------------
  free energy    TOTEN  =      -187.10111357 eV

  energy without entropy =     -187.09977925  energy(sigma->0) =     -187.10044641


--------------------------------------------------------------------------------------------------------




--------------------------------------- Iteration      1(  12)  ---------------------------------------


    POTLOK:  cpu time      0.0044: real time      0.0046
    SETDIJ:  cpu time      0.0017: real time      0.0017
     EDDAV:  cpu time      3.6928: real time      3.7092
       DOS:  cpu time      0.4403: real time      1.4246
    CHARGE:  cpu time      0.1688: real time      0.2215
    MIXING:  cpu time      0.3744: real time      0.4703
    --------------------------------------------
      LOOP:  cpu time      4.6824: real time      5.8318

 eigenvalue-minimisations  : 21800
 total energy-change (2. order) : 0.3597162E-02  (-0.2297080E-02)
 number of electron     211.9999874 magnetization 
 augmentation part       46.4247779 magnetization 

 Broyden mixing:
  rms(total) = 0.17217E-01    rms(broyden)= 0.17184E-01
  rms(prec ) = 0.39151E-01
  weight for this iteration     100.00

[...]
     33     -27.8233      2.00000
     34     -27.7994      2.00000
     35     -27.7743      2.00000
     36     -24.8733      2.00000
     37     -24.8513      2.00000
     38     -24.8409      2.00000
     39     -24.1616      2.00000
     40     -24.1299      2.00000
     41     -24.1086      2.00000
     42     -24.0751      2.00000
     43     -24.0571      2.00000
     44     -24.0221      2.00000
     45     -21.0742      2.00000
     46     -21.0174      2.00000
     47     -20.9872      2.00000
     48     -20.9474      2.00000
     49     -20.8624      2.00000
     50     -20.7804      2.00000
     51     -20.7083      2.00000
     52     -20.6970      2.00000
     53     -20.6913      2.00000
     54     -20.6823      2.00000
     55     -20.6657      2.00000
     56     -20.6313      2.00000
     57     -20.5586      2.00000
     58     -20.5095      2.00000
     59     -20.4266      2.00000
     60     -20.3969      2.00000
     61     -20.3604      2.00000
     62     -20.3015      2.00000
     63       4.1882      2.00000
     64       4.6742      2.00000
     65       4.9156      2.00000
     66       5.2430      2.00000
     67       5.6004      2.00000
     68       5.7015      2.00000
     69       6.1702      2.00000
     70       6.5590      2.00000
     71       6.9150      2.00000
     72       6.9385      2.00000
     73       6.9971      2.00000
     74       7.0360      2.00000
     75       7.1011      2.00000
     76       7.1689      2.00000
     77       7.1841      2.00000
     78       7.2457      2.00000
     79       7.2909      2.00000
     80       7.3739      2.00000
     81       7.3896      2.00000
     82       7.4603      2.00000
     83       7.7511      2.00000
     84       7.7895      2.00000
     85       7.8126      2.00000
     86       7.8965      2.00000
     87       7.9320      2.00000
     88       7.9451      2.00000
     89       7.9754      2.00000
     90       8.0132      2.00000
     91       8.0365      2.00000
     92       8.0597      2.00000
     93       8.0887      2.00000
     94       8.1187      2.00000
     95       8.1441      2.00000
     96       8.1777      2.00000
     97       8.1983      2.00000
     98       8.2574      2.00000
     99       8.3172      2.00000
    100       8.3401      2.00000
    101       8.3924      2.00000
    102       8.4115      2.00000
    103       8.4344      2.00000
    104       8.5004      2.00000
    105       8.5483      2.00000
    106       8.5750      2.00000
    107       8.6047      2.00000
    108       8.6477      2.00000
    109       8.6846      2.00000
    110       9.1133      2.00000
    111      11.8731      0.00000
    112      11.9566      0.00000
    113      12.1103      0.00000
    114      12.1238      0.00000
    115      12.2013      0.00000
    116      12.2191      0.00000
    117      12.2862      0.00000
    118      12.3318      0.00000
    119      12.3560      0.00000
    120      12.4282      0.00000
    121      12.4458      0.00000
    122      12.4965      0.00000
    123      12.5741      0.00000
    124      12.6849      0.00000
    125      12.7071      0.00000
    126      12.7463      0.00000
    127      12.8398      0.00000
    128      12.9078      0.00000

 k-point    63 :       0.4000   -0.4000    0.4000
  band No.  band energies     occupation 
      1     -63.8741      2.00000
      2     -63.8612      2.00000
      3     -63.8563      2.00000
      4     -63.8363      2.00000
      5     -63.8274      2.00000
      6     -63.8158      2.00000
      7     -63.8058      2.00000
      8     -50.7531      2.00000
      9     -44.6504      2.00000
     10     -44.6188      2.00000
     11     -44.6000      2.00000
     12     -44.5619      2.00000
     13     -44.5408      2.00000
     14     -44.5000      2.00000
     15     -28.3217      2.00000
     16     -28.2939      2.00000
     17     -28.2901      2.00000
     18     -28.2213      2.00000
     19     -28.2133      2.00000
     20     -28.1796      2.00000
     21     -28.1186      2.00000
     22     -28.0946      2.00000
     23     -28.0651      2.00000
     24     -28.0554      2.00000
     25     -28.0472      2.00000
     26     -28.0331      2.00000
     27     -28.0290      2.00000
     28     -28.0224      2.00000
     29     -27.9748      2.00000
     30     -27.9068      2.00000
     31     -27.8741      2.00000
     32     -27.8656      2.00000
     33     -27.8194      2.00000
     34     -27.7916      2.00000
     35     -27.7771      2.00000
     36     -24.8732      2.00000
     37     -24.8514      2.00000
     38     -24.8403      2.00000
     39     -24.1616      2.00000
     40     -24.1302      2.00000
     41     -24.1089      2.00000
     42     -24.0750      2.00000
     43     -24.0570      2.00000
     44     -24.0220      2.00000
     45     -21.0902      2.00000
     46     -21.0094      2.00000
     47     -20.9845      2.00000
     48     -20.9468      2.00000
     49     -20.8637      2.00000
     50     -20.7759      2.00000
     51     -20.7052      2.00000
     52     -20.6934      2.00000
     53     -20.6894      2.00000
     54     -20.6814      2.00000
     55     -20.6624      2.00000
     56     -20.6307      2.00000
     57     -20.5669      2.00000
     58     -20.5077      2.00000
     59     -20.4256      2.00000
     60     -20.3989      2.00000
     61     -20.3686      2.00000
     62     -20.2978      2.00000
     63       4.1584      2.00000
     64       4.7586      2.00000
     65       4.9921      2.00000
     66       5.0771      2.00000
     67       5.6020      2.00000
     68       5.8052      2.00000
     69       6.0260      2.00000
     70       6.6233      2.00000
     71       6.8875      2.00000
     72       6.9196      2.00000
     73       7.0202      2.00000
     74       7.0446      2.00000
     75       7.1038      2.00000
     76       7.1692      2.00000
     77       7.2302      2.00000
     78       7.2630      2.00000
     79       7.3331      2.00000
     80       7.3521      2.00000
     81       7.3853      2.00000
     82       7.3938      2.00000
     83       7.7338      2.00000
     84       7.7502      2.00000
     85       7.8130      2.00000
     86       7.8877      2.00000
     87       7.9303      2.00000
     88       7.9669      2.00000
     89       7.9827      2.00000
     90       8.0208      2.00000
     91       8.0512      2.00000
     92       8.0655      2.00000
     93       8.0974      2.00000
     94       8.1462      2.00000
     95       8.1579      2.00000
     96       8.1947      2.00000
     97       8.2275      2.00000
     98       8.2699      2.00000
     99       8.2963      2.00000
    100       8.3288      2.00000
    101       8.3536      2.00000
    102       8.3770      2.00000
    103       8.4158      2.00000
    104       8.5026      2.00000
    105       8.5635      2.00000
    106       8.5813      2.00000
    107       8.6285      2.00000
    108       8.6662      2.00000
    109       8.7129      2.00000
    110       9.0508      2.00000
    111      11.8989      0.00000
    112      11.9755      0.00000
    113      12.1031      0.00000
    114      12.1611      0.00000
    115      12.2116      0.00000
    116      12.2450      0.00000
    117      12.2792      0.00000
    118      12.3184      0.00000
    119      12.3401      0.00000
    120      12.3949      0.00000
    121      12.4139      0.00000
    122      12.4793      0.00000
    123      12.5341      0.00000
    124      12.6429      0.00000
    125      12.7246      0.00000
    126      12.7317      0.00000
    127      12.8870      0.00000
    128      12.9545      0.00000


--------------------------------------------------------------------------------------------------------


 soft charge-density along one line, spin component           1
         0         1         2         3         4         5         6         7         8         9
 total charge-density along one line
 
 pseudopotential strength for first ion, spin component:           1
  5.792 -20.243   0.000  -0.001   0.000  -0.000   0.003  -0.000
-20.243   9.162   0.000  -0.002   0.000  -0.000   0.000  -0.000
  0.000   0.000  -9.698  -0.000   0.000   5.933  -0.000  -0.000
 -0.001  -0.002  -0.000  -9.697  -0.000  -0.000   5.932   0.000
  0.000   0.000   0.000  -0.000  -9.697  -0.000   0.000   5.931
 -0.000  -0.000   5.933  -0.000  -0.000   7.986  -0.000   0.000
  0.003   0.000  -0.000   5.932   0.000  -0.000   7.987  -0.000
 -0.000  -0.000  -0.000   0.000   5.931   0.000  -0.000   7.987
  0.000   0.000   0.000   0.000   0.000  -0.000  -0.001  -0.000
 -0.000   0.000  -0.001   0.000   0.000   0.002  -0.000  -0.001
  0.000   0.000  -0.000  -0.001  -0.000   0.000   0.001   0.000
 -0.000  -0.000   0.000   0.000  -0.001  -0.001  -0.000   0.002
  0.000   0.000  -0.000   0.000   0.000   0.000  -0.000  -0.000
  0.000   0.000   0.000   0.000   0.000  -0.000  -0.001  -0.000
 -0.000   0.000  -0.002   0.000   0.000   0.002  -0.000  -0.001
  0.000   0.000  -0.000  -0.002  -0.000   0.000   0.002   0.000
 -0.000  -0.000   0.000   0.000  -0.002  -0.001  -0.000   0.002
  0.000   0.000  -0.000   0.000   0.000   0.000  -0.000  -0.000
 total augmentation occupancy for first ion, spin component:           1
  1.995  -0.047   0.000   0.000   0.000   0.000   0.000   0.000   0.000  -0.006   0.001  -0.006   0.000  -0.000   0.004  -0.001
 -0.047   1.285  -0.000   0.003  -0.000   0.000   0.001   0.000   0.000   0.009   0.010   0.007  -0.001   0.000  -0.016  -0.001
  0.000  -0.000   1.996   0.000  -0.000  -0.030  -0.001   0.000   0.001   0.010  -0.000  -0.008  -0.000  -0.001  -0.006   0.000
  0.000   0.003   0.000   1.996   0.000  -0.001  -0.029  -0.001  -0.008   0.000   0.001   0.000  -0.000   0.005  -0.000  -0.001
  0.000  -0.000  -0.000   0.000   1.996   0.000  -0.001  -0.030   0.001  -0.008  -0.000   0.010   0.000  -0.000   0.005   0.000
  0.000   0.000  -0.030  -0.001   0.000   0.067   0.002  -0.000  -0.001  -0.011   0.000   0.013   0.000   0.000   0.007  -0.000
  0.000   0.001  -0.001  -0.029  -0.001   0.002   0.066   0.002   0.014   0.000   0.006  -0.000   0.000  -0.008  -0.000  -0.002
  0.000   0.000   0.000  -0.001  -0.030  -0.000   0.002   0.067  -0.001   0.014   0.000  -0.011  -0.000   0.000  -0.008  -0.000
  0.000   0.000   0.001  -0.008   0.001  -0.001   0.014  -0.001   3.383   0.085   0.001   0.081  -0.000  -1.414  -0.058  -0.000
 -0.006   0.009   0.010   0.000  -0.008  -0.011   0.000   0.014   0.085   3.349  -0.014   0.001   0.028  -0.058  -1.401   0.006
  0.001   0.010  -0.000   0.001  -0.000   0.000   0.006   0.000   0.001  -0.014   2.631  -0.014   0.000  -0.000   0.006  -1.197
 -0.006   0.007  -0.008   0.000   0.010   0.013  -0.000  -0.011   0.081   0.001  -0.014   3.363  -0.029  -0.056   0.000   0.006
  0.000  -0.001  -0.000  -0.000   0.000   0.000   0.000  -0.000  -0.000   0.028   0.000  -0.029   2.603   0.000  -0.011   0.000
 -0.000   0.000  -0.001   0.005  -0.000   0.000  -0.008   0.000  -1.414  -0.058  -0.000  -0.056   0.000   0.604   0.034   0.000
  0.004  -0.016  -0.006  -0.000   0.005   0.007  -0.000  -0.008  -0.058  -1.401   0.006   0.000  -0.011   0.034   0.598  -0.002
 -0.001  -0.001   0.000  -0.001   0.000  -0.000  -0.002  -0.000  -0.000   0.006  -1.197   0.006   0.000   0.000  -0.002   0.552
  0.004  -0.015   0.005  -0.000  -0.006  -0.008  -0.000   0.007  -0.057   0.000   0.005  -1.407   0.011   0.033  -0.000  -0.002
 -0.000   0.000   0.000  -0.000  -0.000  -0.000  -0.000   0.000   0.000  -0.012   0.000   0.012  -1.195  -0.000   0.004   0.000


------------------------ aborting loop because EDIFF is reached ----------------------------------------


    CHARGE:  cpu time      0.0855: real time      0.0859
    FORLOC:  cpu time      0.0007: real time      0.0007
    FORNL :  cpu time      0.7936: real time      0.7961
    STRESS:  cpu time      1.2122: real time      1.2172
    FORCOR:  cpu time      0.0058: real time      0.0059
    FORHAR:  cpu time      0.0014: real time      0.0014
    MIXING:  cpu time      0.0006: real time      0.0006
    OFIELD:  cpu time      0.0000: real time      0.0000

  FORCE on cell =-STRESS in cart. coord.  units (eV):
  Direction    XX          YY          ZZ          XY          YZ          ZX
  --------------------------------------------------------------------------------------
  Alpha Z  1811.26960  1811.26960  1811.26960
  Ewald   -7496.98791 -7470.68625 -7443.31039     0.00000     0.00000    -4.21537
  Hartree  1249.85514  1273.97192  1300.97108    -0.10972    -0.23064    -3.17397
  E(xc)    -977.21233  -977.24263  -977.25839    -0.00070     0.00059    -0.00675
  Local    1706.92964  1657.68803  1602.84033     0.23264     0.14367     6.79260
  n-local  -203.43146  -204.29005  -200.88460    -0.13151     0.18594     1.61598
  augment   650.85267   650.81070   650.59702    -0.02882     0.04113     0.02647
  Kinetic  3232.57578  3232.19109  3229.35856    -0.08224    -0.15650    -1.02972
  Fock        0.00000     0.00000     0.00000     0.00000     0.00000     0.00000
  -------------------------------------------------------------------------------------
  Total     -26.14887   -26.28758   -26.41679    -0.12036    -0.01581     0.00925
  in kB    -147.05703  -147.83712  -148.56376    -0.67686    -0.08890     0.05205
  external pressure =     -147.82 kB  Pullay stress =        0.00 kB


 VOLUME and BASIS-vectors are now :
 -----------------------------------------------------------------------------
  energy-cutoff  :      250.00
  volume of cell :      284.89
      direct lattice vectors                 reciprocal lattice vectors
     6.580000000  0.000000000  0.000000000     0.151975684  0.000000000  0.000000000
     0.000000000  6.580000000  0.000000000     0.000000000  0.151975684  0.000000000
     0.000000000  0.000000000  6.580000000     0.000000000  0.000000000  0.151975684

  length of vectors
     6.580000000  6.580000000  6.580000000     0.151975684  0.151975684  0.151975684


 FORCES acting on ions
    electron-ion (+dipol)            ewald-force                    non-local-force                 convergence-correction
 -----------------------------------------------------------------------------------------------
   0.243E-01 0.369E-01 -.209E+02   0.114E-12 0.000E+00 0.204E+02   -.178E-01 -.237E-01 0.198E+00   0.253E-04 -.580E-05 -.167E-03
   -.616E+02 0.408E+02 -.379E-01   0.612E+02 -.408E+02 0.266E-13   0.219E-02 0.136E+00 0.535E-01   0.952E-05 0.683E-04 0.291E-04
   0.617E+02 -.408E+02 -.344E-01   -.612E+02 0.408E+02 0.621E-13   -.271E-01 -.145E+00 0.577E-01   -.249E-04 -.648E-04 0.322E-04
   0.616E+02 0.408E+02 -.471E-01   -.612E+02 -.408E+02 -.802E-13   0.383E-01 0.150E+00 0.574E-01   -.776E-06 0.728E-04 0.448E-04
   -.367E-01 0.347E-01 0.209E+02   0.000E+00 0.000E+00 -.204E+02   0.244E-01 -.258E-01 -.181E+00   -.882E-05 0.208E-05 0.698E-04
   -.617E+02 -.408E+02 0.113E-01   0.612E+02 0.408E+02 0.660E-13   0.209E-01 -.137E+00 -.510E-01   -.516E-04 -.516E-04 -.218E-04
   0.361E-01 0.232E-01 0.224E+02   -.199E-12 -.142E-12 -.220E+02   -.203E-01 -.891E-02 -.577E-01   0.898E-05 -.105E-04 0.149E-03
   -.901E-02 -.201E-01 0.177E+02   -.995E-13 0.000E+00 -.173E+02   -.985E-02 0.916E-03 -.386E-01   -.190E-04 -.594E-05 0.936E-04
   -.158E-01 0.255E-02 -.177E+02   -.142E-13 0.142E-13 0.173E+02   -.530E-02 -.144E-01 0.835E-01   -.213E-04 -.371E-05 -.768E-04
   0.155E-01 -.256E-01 -.223E+02   -.142E-12 -.142E-12 0.220E+02   -.164E-02 0.116E-01 -.694E-01   0.177E-05 0.286E-04 -.129E-03
   -.359E-01 0.217E-01 -.223E+02   -.171E-12 -.142E-12 0.220E+02   0.124E-01 -.482E-02 -.120E+00   -.231E-05 -.170E-04 -.482E-04
   -.662E+02 0.439E+02 0.114E-01   0.659E+02 -.439E+02 0.281E-13   -.564E-01 -.145E-01 0.116E-01   0.920E-05 0.533E-05 -.381E-04
   0.273E-01 -.281E-01 0.224E+02   -.171E-12 -.114E-12 -.220E+02   -.165E-01 0.996E-02 0.290E-03   0.556E-05 0.358E-04 0.105E-03
   0.662E+02 -.439E+02 0.114E-01   -.659E+02 0.439E+02 0.142E-12   0.833E-01 0.340E-02 0.168E-01   -.623E-05 -.290E-04 -.522E-04
   -.662E+02 -.439E+02 -.486E-01   0.659E+02 0.439E+02 0.113E-12   -.103E+00 0.794E-02 -.292E-02   0.547E-04 -.529E-04 0.533E-04
   0.663E+02 0.439E+02 0.175E-01   -.659E+02 -.439E+02 0.583E-13   0.103E-01 -.272E-02 -.161E-02   -.224E-04 0.247E-04 -.524E-04
 -----------------------------------------------------------------------------------------------
   0.667E-01 0.564E-01 0.441E-01   -.284E-13 -.156E-12 0.115E-12   -.667E-01 -.564E-01 -.441E-01   -.422E-04 -.359E-05 -.737E-05
 
 
 POSITION                                       TOTAL-FORCE (eV/Angst)
 -----------------------------------------------------------------------------------
      4.93500      1.64500      4.93500         0.006485      0.013184     -0.336452
      0.00000      0.00000      0.00000        -0.458395      0.165761      0.015596
      3.29000      3.29000      0.00000         0.454360     -0.137490      0.023331
      3.29000      0.00000      0.00000         0.493462      0.141224      0.010318
      1.64500      1.64500      1.64500        -0.012341      0.008888      0.300882
      0.00000      3.29000      3.29000        -0.483034     -0.183577     -0.039751
      4.93500      1.64500      1.64500         0.015754      0.014322      0.368323
      1.64500      4.93500      1.64500        -0.018876     -0.019183      0.440804
      1.64500      4.93500      4.93500        -0.021121     -0.011836     -0.396626
      4.93500      4.93500      4.93500         0.013817     -0.013936     -0.388737
      1.64500      1.64500      4.93500        -0.023568      0.016815     -0.410268
      0.00000      0.00000      3.29000        -0.398282     -0.021473      0.023029
      4.93500      4.93500      1.64500         0.010715     -0.018154      0.397043
      3.29000      3.29000      3.29000         0.403990     -0.002612      0.028198
      0.00000      3.29000      0.00000        -0.372818      0.030559     -0.051509
      3.29000      0.00000      3.29000         0.389852      0.017510      0.015819
 -----------------------------------------------------------------------------------
    total drift:                               -0.000002      0.000046     -0.000018


--------------------------------------------------------------------------------------------------------



  FREE ENERGIE OF THE ION-ELECTRON SYSTEM (eV)
  ---------------------------------------------------
  free  energy   TOTEN  =      -187.09699669 eV

  energy  without entropy=     -187.09566577  energy(sigma->0) =     -187.09633123
 


--------------------------------------------------------------------------------------------------------


    POTLOK:  cpu time      0.0060: real time      0.0085


--------------------------------------------------------------------------------------------------------


     LOOP+:  cpu time    273.2730: real time    299.3820
    4ORBIT:  cpu time      0.0000: real time      0.0000

 total amount of memory used by VASP MPI-rank0    48253. kBytes
=======================================================================

   base      :      30000. kBytes
   nonl-proj :       8332. kBytes
   fftplans  :        456. kBytes
   grid      :        919. kBytes
   one-center:         31. kBytes
   wavefun   :       8515. kBytes
 
  
  
 General timing and accounting informations for this job:
 ========================================================
  
                  Total CPU time used (sec):      276.742
                            User time (sec):      270.773
                          System time (sec):        5.969
                         Elapsed time (sec):      315.073
  
                   Maximum memory used (kb):       93772.
                   Average memory used (kb):          N/A
  
                          Minor page faults:         8564
                          Major page faults:            0
                 Voluntary context switches:          230
