 vasp.6.3.1 04May22 (build Jul 26 2022 04:02:40) complex                        
  
 executed on             LinuxIFC date 2023.11.30  03:16:54
 running on   48 total cores
 distrk:  each k-point on   48 cores,    1 groups
 distr:  one band on NCORE=  12 cores,    4 groups


--------------------------------------------------------------------------------------------------------


 INCAR:
   ISTART = 0
   NWRITE = 2
   PREC = Accurate
   ENCUT = 250
   GGA = PE
   NSW = 0
   ISIF = 2
   ISYM = 2
   NBLOCK = 1
   KBLOCK = 1
   IBRION = -1
   NELM = 80
   EDIFF = 1E-08
   EDIFFG = -0.01
   ALGO = Normal
   LDIAG = .TRUE.
   LREAL = .FALSE.
   ISMEAR = 0
   SIGMA = 0.02
   ICHARG = 2
   LPLANE = .TRUE.
   NPAR = 4
   LSCALU = .FALSE.
   NSIM = 4
   LWAVE = .FALSE.
   LCHARG = .FALSE.
   ICORELEVEL = 1

 POTCAR:    PAW_PBE Nb_sv 25May2007               
 POTCAR:    PAW_PBE Mo_sv 02Feb2006               
 POTCAR:    PAW_PBE Ta_pv 07Sep2000               
 POTCAR:    PAW_PBE W_sv 04Sep2015                
 POTCAR:    PAW_PBE Nb_sv 25May2007               
   SHA256 =  0e8fc07c9fcd1164cf2ade22d0399fd28f85e91cd773dfa6cf24839a48c95e24 Nb_sv/POTCAR          
   COPYR  = (c) Copyright 25May2007 Georg Kresse                                                    
   COPYR  = This file is part of the software VASP. Any use, copying, and all other rights are regul
   COPYR  = If you do not have a valid VASP license, you may not use, copy or distribute this file. 
   VRHFIN =Nb: 4p5s4d                                                                               
   LEXCH  = PE                                                                                      
   EATOM  =  1555.1913 eV,  114.3033 Ry                                                             
                                                                                                    
   TITEL  = PAW_PBE Nb_sv 25May2007                                                                 
   LULTRA =        F    use ultrasoft PP ?                                                          
   IUNSCR =        1    unscreen: 0-lin 1-nonlin 2-no                                               
   RPACOR =    1.800    partial core radius                                                         
   POMASS =   92.910; ZVAL   =   13.000    mass and valenz                                          
   RCORE  =    2.400    outmost cutoff radius                                                       
   RWIGS  =    2.400; RWIGS  =    1.270    wigner-seitz radius (au A)                               
   ENMAX  =  293.235; ENMIN  =  219.927 eV                                                          
   ICORE  =        3    local potential                                                             
   LCOR   =        T    correct aug charges                                                         
   LPAW   =        T    paw PP                                                                      
   EAUG   =  455.659                                                                                
   DEXC   =    0.000                                                                                
   RMAX   =    2.456    core radius for proj-oper                                                   
   RAUG   =    1.300    factor for augmentation sphere                                              
   RDEP   =    2.451    radius for radial grids                                                     
   RDEPT  =    1.956    core radius for aug-charge                                                  
                                                                                                    
   Atomic configuration                                                                             
   11 entries                                                                                       
     n  l   j            E        occ.                                                              
     1  0  0.50    -18805.2457   2.0000                                                             
     2  0  0.50     -2630.2869   2.0000                                                             
     2  1  1.50     -2348.4046   6.0000                                                             
     3  0  0.50      -438.8757   2.0000                                                             
     3  1  1.50      -346.7588   6.0000                                                             
     3  2  2.50      -196.2560  10.0000                                                             
     4  0  0.50       -58.3859   2.0000                                                             
     5  0  0.50        -3.9816   1.0000                                                             
     4  1  1.50       -34.5141   6.0000                                                             
     4  2  2.50        -3.0408   4.0000                                                             
     4  3  2.50        -1.3606   0.0000                                                             
   Description                                                                                      
     l       E           TYP  RCUT    TYP  RCUT                                                     
     0    -58.3859094     23  2.200                                                                 
     0     -3.9816262     23  2.200                                                                 
     1    -34.5140738     23  2.200                                                                 
     1     13.6058260     23  2.200                                                                 
     2     -3.0408010     23  2.200                                                                 
     2     -0.1283038     23  2.200                                                                 
     3     -1.3605826     23  2.400                                                                 
  local pseudopotential read in
  partial core-charges read in
  partial kinetic energy density read in
  atomic valenz-charges read in
  non local Contribution for L=           0  read in
    real space projection operators read in
  non local Contribution for L=           0  read in
    real space projection operators read in
  non local Contribution for L=           1  read in
    real space projection operators read in
  non local Contribution for L=           1  read in
    real space projection operators read in
  non local Contribution for L=           2  read in
    real space projection operators read in
  non local Contribution for L=           2  read in
    real space projection operators read in
    PAW grid and wavefunctions read in
 
   number of l-projection  operators is LMAX  =           6
   number of lm-projection operators is LMMAX =          18
 
 POTCAR:    PAW_PBE Mo_sv 02Feb2006               
   SHA256 =  2731df97e41766cc617548c5a8267718fdef1f509ac6bafa01e745abea2bdfaa Mo_sv/POTCAR          
   COPYR  = (c) Copyright 02Feb2006 Georg Kresse                                                    
   COPYR  = This file is part of the software VASP. Any use, copying, and all other rights are regul
   COPYR  = If you do not have a valid VASP license, you may not use, copy or distribute this file. 
   VRHFIN =Mo: 4p5s4d                                                                               
   LEXCH  = PE                                                                                      
   EATOM  =  1862.2866 eV,  136.8742 Ry                                                             
                                                                                                    
   TITEL  = PAW_PBE Mo_sv 02Feb2006                                                                 
   LULTRA =        F    use ultrasoft PP ?                                                          
   IUNSCR =        1    unscreen: 0-lin 1-nonlin 2-no                                               
   RPACOR =    2.200    partial core radius                                                         
   POMASS =   95.940; ZVAL   =   14.000    mass and valenz                                          
   RCORE  =    2.500    outmost cutoff radius                                                       
   RWIGS  =    2.750; RWIGS  =    1.455    wigner-seitz radius (au A)                               
   ENMAX  =  242.676; ENMIN  =  182.007 eV                                                          
   ICORE  =        3    local potential                                                             
   LCOR   =        T    correct aug charges                                                         
   LPAW   =        T    paw PP                                                                      
   EAUG   =  446.014                                                                                
   DEXC   =    0.000                                                                                
   RMAX   =    2.563    core radius for proj-oper                                                   
   RAUG   =    1.300    factor for augmentation sphere                                              
   RDEP   =    2.641    radius for radial grids                                                     
   RDEPT  =    2.031    core radius for aug-charge                                                  
                                                                                                    
   Atomic configuration                                                                             
   11 entries                                                                                       
     n  l   j            E        occ.                                                              
     1  0  0.50    -19819.0341   2.0000                                                             
     2  0  0.50     -2799.0127   2.0000                                                             
     2  1  1.50     -2502.0276   6.0000                                                             
     3  0  0.50      -476.4449   2.0000                                                             
     3  1  1.50      -379.1496   6.0000                                                             
     3  2  2.50      -220.9367  10.0000                                                             
     4  0  0.50       -64.3378   2.0000                                                             
     5  0  0.50        -4.0862   1.0000                                                             
     4  1  1.50       -38.4773   6.0000                                                             
     4  2  2.50        -3.7535   5.0000                                                             
     4  3  2.50        -1.3606   0.0000                                                             
   Description                                                                                      
     l       E           TYP  RCUT    TYP  RCUT                                                     
     0    -64.3377829     23  2.100                                                                 
     0     -4.0861640     23  2.400                                                                 
     1    -38.4772993     23  2.100                                                                 
     1     13.6058260     23  2.100                                                                 
     2     -3.7534941     23  2.400                                                                 
     2     -5.1140767     23  2.400                                                                 
     3     -4.0817478     23  2.500                                                                 
  local pseudopotential read in
  partial core-charges read in
  partial kinetic energy density read in
  atomic valenz-charges read in
  non local Contribution for L=           0  read in
    real space projection operators read in
  non local Contribution for L=           0  read in
    real space projection operators read in
  non local Contribution for L=           1  read in
    real space projection operators read in
  non local Contribution for L=           1  read in
    real space projection operators read in
  non local Contribution for L=           2  read in
    real space projection operators read in
  non local Contribution for L=           2  read in
    real space projection operators read in
    PAW grid and wavefunctions read in
 
   number of l-projection  operators is LMAX  =           6
   number of lm-projection operators is LMMAX =          18
 
 POTCAR:    PAW_PBE Ta_pv 07Sep2000               
   SHA256 =  00d0a14a36c127416459414afb8617d9754996fffa60a2465888e660b20a452f Ta_pv/POTCAR          
   COPYR  = (c) Copyright 07Sep2000 Georg Kresse                                                    
   COPYR  = This file is part of the software VASP. Any use, copying, and all other rights are regul
   COPYR  = If you do not have a valid VASP license, you may not use, copy or distribute this file. 
   VRHFIN =Ta:  5p6s5d                                                                              
   LEXCH  = PE                                                                                      
   EATOM  =  1047.1984 eV,   76.9669 Ry                                                             
                                                                                                    
   TITEL  = PAW_PBE Ta_pv 07Sep2000                                                                 
   LULTRA =        F    use ultrasoft PP ?                                                          
   IUNSCR =        1    unscreen: 0-lin 1-nonlin 2-no                                               
   RPACOR =    2.330    partial core radius                                                         
   POMASS =  180.948; ZVAL   =   11.000    mass and valenz                                          
   RCORE  =    2.500    outmost cutoff radius                                                       
   RWIGS  =    2.840; RWIGS  =    1.503    wigner-seitz radius (au A)                               
   ENMAX  =  223.667; ENMIN  =  167.750 eV                                                          
   RCLOC  =    2.205    cutoff for local pot                                                        
   LCOR   =        T    correct aug charges                                                         
   LPAW   =        T    paw PP                                                                      
   EAUG   =  377.421                                                                                
   DEXC   =    0.000                                                                                
   RMAX   =    2.551    core radius for proj-oper                                                   
   RAUG   =    1.300    factor for augmentation sphere                                              
   RDEP   =    2.526    radius for radial grids                                                     
   RDEPT  =    2.132    core radius for aug-charge                                                  
                                                                                                    
   Atomic configuration                                                                             
   15 entries                                                                                       
     n  l   j            E        occ.                                                              
     1  0  0.50    -67341.2801   2.0000                                                             
     2  0  0.50    -11566.9369   2.0000                                                             
     2  1  1.50    -10134.1175   6.0000                                                             
     3  0  0.50     -2648.5614   2.0000                                                             
     3  1  1.50     -2222.6006   6.0000                                                             
     3  2  2.50     -1726.3114  10.0000                                                             
     4  0  0.50      -538.6957   2.0000                                                             
     4  1  1.50      -399.0125   6.0000                                                             
     4  2  2.50      -220.3955  10.0000                                                             
     4  3  3.50       -23.0371  14.0000                                                             
     5  0  0.50       -71.2900   2.0000                                                             
     5  1  1.50       -37.8224   6.0000                                                             
     5  2  2.50        -2.6455   4.0000                                                             
     6  0  0.50        -4.9623   1.0000                                                             
     5  3  2.50        -1.3606   0.0000                                                             
   Description                                                                                      
     l       E           TYP  RCUT    TYP  RCUT                                                     
     1    -37.8224449     23  2.500                                                                 
     1      1.3605826     23  2.500                                                                 
     2     -2.6454718     23  2.500                                                                 
     2     -0.6258570     23  2.500                                                                 
     0     -4.9622674     23  2.500                                                                 
     0      4.7531427     23  2.500                                                                 
  local pseudopotential read in
  partial core-charges read in
  partial kinetic energy density read in
  atomic valenz-charges read in
  non local Contribution for L=           1  read in
    real space projection operators read in
  non local Contribution for L=           1  read in
    real space projection operators read in
  non local Contribution for L=           2  read in
    real space projection operators read in
  non local Contribution for L=           2  read in
    real space projection operators read in
  non local Contribution for L=           0  read in
    real space projection operators read in
  non local Contribution for L=           0  read in
    real space projection operators read in
    PAW grid and wavefunctions read in
 
   number of l-projection  operators is LMAX  =           6
   number of lm-projection operators is LMMAX =          18
 
 POTCAR:    PAW_PBE W_sv 04Sep2015                
   SHA256 =  931c2d770f65867ef30f3db3421922900fc0890ebac5c3e12f63b6a2064023d7 W_sv/POTCAR           
   COPYR  = (c) Copyright 04Sep2015 Georg Kresse                                                    
   COPYR  = This file is part of the software VASP. Any use, copying, and all other rights are regul
   COPYR  = If you do not have a valid VASP license, you may not use, copy or distribute this file. 
   VRHFIN =W : 5p6s5d                                                                               
   LEXCH  = PE                                                                                      
   EATOM  =  1865.5791 eV,  137.1162 Ry                                                             
                                                                                                    
   TITEL  = PAW_PBE W_sv 04Sep2015                                                                  
   LULTRA =        F    use ultrasoft PP ?                                                          
   IUNSCR =        1    unscreen: 0-lin 1-nonlin 2-no                                               
   RPACOR =    2.330    partial core radius                                                         
   POMASS =  183.850; ZVAL   =   14.000    mass and valenz                                          
   RCORE  =    2.500    outmost cutoff radius                                                       
   RWIGS  =    2.750; RWIGS  =    1.455    wigner-seitz radius (au A)                               
   ENMAX  =  223.057; ENMIN  =  167.293 eV                                                          
   ICORE  =        3    local potential                                                             
   LCOR   =        T    correct aug charges                                                         
   LPAW   =        T    paw PP                                                                      
   EAUG   =  373.438                                                                                
   DEXC   =    0.000                                                                                
   RMAX   =    2.565    core radius for proj-oper                                                   
   RAUG   =    1.300    factor for augmentation sphere                                              
   RDEP   =    2.539    radius for radial grids                                                     
   RDEPT  =    2.126    core radius for aug-charge                                                  
                                                                                                    
   Atomic configuration                                                                             
   15 entries                                                                                       
     n  l   j            E        occ.                                                              
     1  0  0.50    -69465.5834   2.0000                                                             
     2  0  0.50    -11986.2640   2.0000                                                             
     2  1  1.50    -10479.8613   6.0000                                                             
     3  0  0.50     -2759.0756   2.0000                                                             
     3  1  1.50     -2313.1855   6.0000                                                             
     3  2  2.50     -1801.1183  10.0000                                                             
     4  0  0.50      -567.6789   2.0000                                                             
     4  1  1.50      -421.4692   6.0000                                                             
     4  2  2.50      -236.3471  10.0000                                                             
     4  3  3.50       -31.2665  14.0000                                                             
     5  0  0.50       -77.1084   2.0000                                                             
     6  0  0.50        -5.1438   1.0000                                                             
     5  1  1.50       -41.3856   6.0000                                                             
     5  2  2.50        -3.3185   5.0000                                                             
     5  3  2.50        -1.3606   0.0000                                                             
   Description                                                                                      
     l       E           TYP  RCUT    TYP  RCUT                                                     
     0    -77.1084470     23  2.100                                                                 
     0     -5.1437956     23  2.300                                                                 
     1    -41.3855615     23  2.500                                                                 
     1     -2.7211652     23  2.500                                                                 
     2     -3.3185025     23  2.500                                                                 
     2     -1.5965151     23  2.500                                                                 
     3     -1.3605826     23  2.500                                                                 
  local pseudopotential read in
  partial core-charges read in
  partial kinetic energy density read in
  kinetic energy density of atom read in
  atomic valenz-charges read in
  non local Contribution for L=           0  read in
    real space projection operators read in
  non local Contribution for L=           0  read in
    real space projection operators read in
  non local Contribution for L=           1  read in
    real space projection operators read in
  non local Contribution for L=           1  read in
    real space projection operators read in
  non local Contribution for L=           2  read in
    real space projection operators read in
  non local Contribution for L=           2  read in
    real space projection operators read in
    PAW grid and wavefunctions read in
 
   number of l-projection  operators is LMAX  =           6
   number of lm-projection operators is LMMAX =          18
 
  PAW_PBE Nb_sv 25May2007               :
 energy of atom  1       EATOM=-1555.1913
 kinetic energy error for atom=    0.2155 (will be added to EATOM!!)
  PAW_PBE Mo_sv 02Feb2006               :
 energy of atom  2       EATOM=-1862.2866
 kinetic energy error for atom=    0.1102 (will be added to EATOM!!)
  PAW_PBE Ta_pv 07Sep2000               :
 energy of atom  3       EATOM=-1047.1984
 kinetic energy error for atom=    0.0394 (will be added to EATOM!!)
  PAW_PBE W_sv 04Sep2015                :
 energy of atom  4       EATOM=-1865.5791
 kinetic energy error for atom=    0.0589 (will be added to EATOM!!)
 
 
 POSCAR: Nb-Mo-Ta-W alloy
  positions in direct lattice
  No initial velocities read in
 exchange correlation table for  LEXCH =        8
   RHO(1)=    0.500       N(1)  =     2000
   RHO(2)=  100.500       N(2)  =     4000
 


--------------------------------------------------------------------------------------------------------


 ion  position               nearest neighbor table
   1  0.000  0.000  0.500-   2 2.85   4 2.85   5 2.85   6 2.85   7 2.85  12 2.85  14 2.85  16 2.85
                            11 3.29  11 3.29
   2  0.750  0.750  0.250-   1 2.85   3 2.85   8 2.85   9 2.85  10 2.85  11 2.85  13 2.85  15 2.85

   3  0.000  0.500  0.500-   2 2.85   4 2.85   5 2.85   6 2.85   7 2.85  12 2.85  14 2.85  16 2.85
                            10 3.29  10 3.29
   4  0.250  0.750  0.750-   1 2.85   3 2.85   8 2.85   9 2.85  10 2.85  11 2.85  13 2.85  15 2.85
                            12 3.29  12 3.29
   5  0.250  0.250  0.250-   1 2.85   3 2.85   8 2.85   9 2.85  10 2.85  11 2.85  13 2.85  15 2.85
                            12 3.29  12 3.29
   6  0.250  0.750  0.250-   1 2.85   3 2.85   8 2.85   9 2.85  10 2.85  11 2.85  13 2.85  15 2.85

   7  0.750  0.250  0.250-   1 2.85   3 2.85   8 2.85   9 2.85  10 2.85  11 2.85  13 2.85  15 2.85
                            16 3.29  16 3.29
   8  0.500  0.500  0.000-   2 2.85   4 2.85   5 2.85   6 2.85   7 2.85  12 2.85  14 2.85  16 2.85
                            10 3.29  15 3.29  13 3.29  13 3.29  15 3.29  10 3.29
   9  0.000  0.000  0.000-   2 2.85   4 2.85   5 2.85   6 2.85   7 2.85  12 2.85  14 2.85  16 2.85
                            15 3.29  10 3.29  10 3.29  15 3.29
  10  0.000  0.500  0.000-   2 2.85   4 2.85   5 2.85   6 2.85   7 2.85  12 2.85  14 2.85  16 2.85
                             3 3.29   8 3.29   9 3.29   3 3.29   9 3.29   8 3.29
  11  0.500  0.000  0.500-   2 2.85   4 2.85   5 2.85   6 2.85   7 2.85  12 2.85  14 2.85  16 2.85
                             1 3.29  15 3.29  13 3.29  15 3.29  13 3.29   1 3.29
  12  0.250  0.250  0.750-   1 2.85   3 2.85   8 2.85   9 2.85  10 2.85  11 2.85  13 2.85  15 2.85
                             4 3.29   5 3.29  16 3.29   5 3.29   4 3.29  16 3.29
  13  0.500  0.500  0.500-   2 2.85   4 2.85   5 2.85   6 2.85   7 2.85  12 2.85  14 2.85  16 2.85
                            11 3.29   8 3.29   8 3.29  11 3.29
  14  0.750  0.750  0.750-   1 2.85   3 2.85   8 2.85   9 2.85  10 2.85  11 2.85  13 2.85  15 2.85
                            16 3.29  16 3.29
  15  0.500  0.000  0.000-   2 2.85   4 2.85   5 2.85   6 2.85   7 2.85  12 2.85  14 2.85  16 2.85
                             8 3.29   9 3.29  11 3.29  11 3.29   8 3.29   9 3.29
  16  0.750  0.250  0.750-   1 2.85   3 2.85   8 2.85   9 2.85  10 2.85  11 2.85  13 2.85  15 2.85
                             7 3.29  14 3.29  12 3.29   7 3.29  14 3.29  12 3.29
 
  LATTYP: Found a simple cubic cell.
 ALAT       =     6.5800000000
  
  Lattice vectors:
  
 A1 = (   6.5800000000,   0.0000000000,   0.0000000000)
 A2 = (   0.0000000000,   6.5800000000,   0.0000000000)
 A3 = (   0.0000000000,   0.0000000000,   6.5800000000)


Analysis of symmetry for initial positions (statically):
=====================================================================
 Subroutine PRICEL returns:
 Original cell was already a primitive cell.
 

 Routine SETGRP: Setting up the symmetry group for a 
 simple cubic supercell.


 Subroutine GETGRP returns: Found  1 space group operations
 (whereof  1 operations were pure point group operations)
 out of a pool of 48 trial point group operations.


The static configuration has the point symmetry C_1 .


Analysis of symmetry for dynamics (positions and initial velocities):
=====================================================================
 Subroutine PRICEL returns:
 Original cell was already a primitive cell.
 

 Routine SETGRP: Setting up the symmetry group for a 
 simple cubic supercell.


 Subroutine GETGRP returns: Found  1 space group operations
 (whereof  1 operations were pure point group operations)
 out of a pool of 48 trial point group operations.


The dynamic configuration has the point symmetry C_1 .


 Subroutine INISYM returns: Found  1 space group operations
 (whereof  1 operations are pure point group operations),
 and found     1 'primitive' translations


----------------------------------------------------------------------------------------

                                     Primitive cell                                     

  volume of cell :     284.8903

  direct lattice vectors                    reciprocal lattice vectors
     6.580000000  0.000000000  0.000000000     0.151975684  0.000000000  0.000000000
     0.000000000  6.580000000  0.000000000     0.000000000  0.151975684  0.000000000
     0.000000000  0.000000000  6.580000000     0.000000000  0.000000000  0.151975684

  length of vectors
     6.580000000  6.580000000  6.580000000     0.151975684  0.151975684  0.151975684

  position of ions in fractional coordinates (direct lattice)
     0.000000000  0.000000000  0.500000000
     0.750000000  0.750000000  0.250000000
     0.000000000  0.500000000  0.500000000
     0.250000000  0.750000000  0.750000000
     0.250000000  0.250000000  0.250000000
     0.250000000  0.750000000  0.250000000
     0.750000000  0.250000000  0.250000000
     0.500000000  0.500000000  0.000000000
     0.000000000  0.000000000  0.000000000
     0.000000000  0.500000000  0.000000000
     0.500000000  0.000000000  0.500000000
     0.250000000  0.250000000  0.750000000
     0.500000000  0.500000000  0.500000000
     0.750000000  0.750000000  0.750000000
     0.500000000  0.000000000  0.000000000
     0.750000000  0.250000000  0.750000000

  ion indices of the primitive-cell ions
   primitive index   ion index
                 1           1
                 2           2
                 3           3
                 4           4
                 5           5
                 6           6
                 7           7
                 8           8
                 9           9
                10          10
                11          11
                12          12
                13          13
                14          14
                15          15
                16          16

----------------------------------------------------------------------------------------

 
 
 KPOINTS: K-Spacing Value to Generate K-Mesh: 0.03

Automatic generation of k-mesh.
 Grid dimensions read from file:
 generate k-points for:    5    5    5

 Generating k-lattice:

  Cartesian coordinates                     Fractional coordinates (reciprocal lattice)
     0.030395137  0.000000000  0.000000000     0.200000000  0.000000000  0.000000000
     0.000000000  0.030395137  0.000000000     0.000000000  0.200000000  0.000000000
     0.000000000  0.000000000  0.030395137     0.000000000  0.000000000  0.200000000

  Length of vectors
     0.030395137  0.030395137  0.030395137

  Shift w.r.t. Gamma in fractional coordinates (k-lattice)
     0.000000000  0.000000000  0.000000000

 
 Subroutine IBZKPT returns following result:
 ===========================================
 
 Found     63 irreducible k-points:
 
 Following reciprocal coordinates:
            Coordinates               Weight
  0.000000  0.000000  0.000000      1.000000
  0.200000  0.000000  0.000000      2.000000
  0.000000  0.200000  0.000000      2.000000
  0.000000  0.000000  0.200000      2.000000
  0.400000  0.000000  0.000000      2.000000
  0.000000  0.400000  0.000000      2.000000
  0.000000  0.000000  0.400000      2.000000
  0.200000  0.200000  0.000000      2.000000
  0.000000  0.200000  0.200000      2.000000
  0.200000  0.000000  0.200000      2.000000
 -0.200000  0.200000  0.000000      2.000000
 -0.200000  0.000000  0.200000      2.000000
  0.000000 -0.200000  0.200000      2.000000
  0.400000  0.200000  0.000000      2.000000
  0.000000  0.400000  0.200000      2.000000
  0.200000  0.000000  0.400000      2.000000
 -0.200000  0.400000  0.000000      2.000000
 -0.400000  0.000000  0.200000      2.000000
  0.000000  0.200000  0.400000      2.000000
  0.000000 -0.400000  0.200000      2.000000
 -0.200000  0.000000  0.400000      2.000000
  0.400000  0.000000  0.200000      2.000000
  0.000000 -0.200000  0.400000      2.000000
  0.400000 -0.200000  0.000000      2.000000
  0.200000  0.400000  0.000000      2.000000
  0.400000  0.400000  0.000000      2.000000
  0.000000  0.400000  0.400000      2.000000
  0.400000  0.000000  0.400000      2.000000
 -0.400000  0.400000  0.000000      2.000000
 -0.400000  0.000000  0.400000      2.000000
  0.000000 -0.400000  0.400000      2.000000
  0.200000  0.200000  0.200000      2.000000
 -0.200000  0.200000  0.200000      2.000000
 -0.200000 -0.200000  0.200000      2.000000
  0.200000 -0.200000  0.200000      2.000000
  0.400000  0.200000  0.200000      2.000000
  0.200000  0.400000  0.200000      2.000000
  0.200000  0.200000  0.400000      2.000000
 -0.200000  0.400000  0.200000      2.000000
 -0.400000  0.200000  0.200000      2.000000
 -0.200000  0.200000  0.400000      2.000000
 -0.400000 -0.200000  0.200000      2.000000
 -0.200000 -0.400000  0.200000      2.000000
 -0.200000 -0.200000  0.400000      2.000000
  0.200000 -0.400000  0.200000      2.000000
  0.400000 -0.200000  0.200000      2.000000
  0.200000 -0.200000  0.400000      2.000000
  0.400000  0.400000  0.200000      2.000000
  0.200000  0.400000  0.400000      2.000000
  0.400000  0.200000  0.400000      2.000000
 -0.400000  0.400000  0.200000      2.000000
 -0.400000  0.200000  0.400000      2.000000
 -0.200000  0.400000  0.400000      2.000000
 -0.400000 -0.400000  0.200000      2.000000
 -0.200000 -0.400000  0.400000      2.000000
 -0.400000 -0.200000  0.400000      2.000000
  0.400000 -0.400000  0.200000      2.000000
  0.400000 -0.200000  0.400000      2.000000
  0.200000 -0.400000  0.400000      2.000000
  0.400000  0.400000  0.400000      2.000000
 -0.400000  0.400000  0.400000      2.000000
 -0.400000 -0.400000  0.400000      2.000000
  0.400000 -0.400000  0.400000      2.000000
 
 Following cartesian coordinates:
            Coordinates               Weight
  0.000000  0.000000  0.000000      1.000000
  0.030395  0.000000  0.000000      2.000000
  0.000000  0.030395  0.000000      2.000000
  0.000000  0.000000  0.030395      2.000000
  0.060790  0.000000  0.000000      2.000000
  0.000000  0.060790  0.000000      2.000000
  0.000000  0.000000  0.060790      2.000000
  0.030395  0.030395  0.000000      2.000000
  0.000000  0.030395  0.030395      2.000000
  0.030395  0.000000  0.030395      2.000000
 -0.030395  0.030395  0.000000      2.000000
 -0.030395  0.000000  0.030395      2.000000
  0.000000 -0.030395  0.030395      2.000000
  0.060790  0.030395  0.000000      2.000000
  0.000000  0.060790  0.030395      2.000000
  0.030395  0.000000  0.060790      2.000000
 -0.030395  0.060790  0.000000      2.000000
 -0.060790  0.000000  0.030395      2.000000
  0.000000  0.030395  0.060790      2.000000
  0.000000 -0.060790  0.030395      2.000000
 -0.030395  0.000000  0.060790      2.000000
  0.060790  0.000000  0.030395      2.000000
  0.000000 -0.030395  0.060790      2.000000
  0.060790 -0.030395  0.000000      2.000000
  0.030395  0.060790  0.000000      2.000000
  0.060790  0.060790  0.000000      2.000000
  0.000000  0.060790  0.060790      2.000000
  0.060790  0.000000  0.060790      2.000000
 -0.060790  0.060790  0.000000      2.000000
 -0.060790  0.000000  0.060790      2.000000
  0.000000 -0.060790  0.060790      2.000000
  0.030395  0.030395  0.030395      2.000000
 -0.030395  0.030395  0.030395      2.000000
 -0.030395 -0.030395  0.030395      2.000000
  0.030395 -0.030395  0.030395      2.000000
  0.060790  0.030395  0.030395      2.000000
  0.030395  0.060790  0.030395      2.000000
  0.030395  0.030395  0.060790      2.000000
 -0.030395  0.060790  0.030395      2.000000
 -0.060790  0.030395  0.030395      2.000000
 -0.030395  0.030395  0.060790      2.000000
 -0.060790 -0.030395  0.030395      2.000000
 -0.030395 -0.060790  0.030395      2.000000
 -0.030395 -0.030395  0.060790      2.000000
  0.030395 -0.060790  0.030395      2.000000
  0.060790 -0.030395  0.030395      2.000000
  0.030395 -0.030395  0.060790      2.000000
  0.060790  0.060790  0.030395      2.000000
  0.030395  0.060790  0.060790      2.000000
  0.060790  0.030395  0.060790      2.000000
 -0.060790  0.060790  0.030395      2.000000
 -0.060790  0.030395  0.060790      2.000000
 -0.030395  0.060790  0.060790      2.000000
 -0.060790 -0.060790  0.030395      2.000000
 -0.030395 -0.060790  0.060790      2.000000
 -0.060790 -0.030395  0.060790      2.000000
  0.060790 -0.060790  0.030395      2.000000
  0.060790 -0.030395  0.060790      2.000000
  0.030395 -0.060790  0.060790      2.000000
  0.060790  0.060790  0.060790      2.000000
 -0.060790  0.060790  0.060790      2.000000
 -0.060790 -0.060790  0.060790      2.000000
  0.060790 -0.060790  0.060790      2.000000
 


--------------------------------------------------------------------------------------------------------




 Dimension of arrays:
   k-points           NKPTS =     63   k-points in BZ     NKDIM =     63   number of bands    NBANDS=    128
   number of dos      NEDOS =    301   number of ions     NIONS =     16
   non local maximal  LDIM  =      6   non local SUM 2l+1 LMDIM =     18
   total plane-waves  NPLWV =  46656
   max r-space proj   IRMAX =      1   max aug-charges    IRDMAX=   9546
   dimension x,y,z NGX =    36 NGY =   36 NGZ =   36
   dimension x,y,z NGXF=    72 NGYF=   72 NGZF=   72
   support grid    NGXF=    72 NGYF=   72 NGZF=   72
   ions per type =               6   3   3   4
   NGX,Y,Z   is equivalent  to a cutoff of   9.10,  9.10,  9.10 a.u.
   NGXF,Y,Z  is equivalent  to a cutoff of  18.19, 18.19, 18.19 a.u.

 SYSTEM =  unknown system                          
 POSCAR =  Nb-Mo-Ta-W alloy                        

 Startparameter for this run:
   NWRITE =      2    write-flag & timer
   PREC   = accura    normal or accurate (medium, high low for compatibility)
   ISTART =      0    job   : 0-new  1-cont  2-samecut
   ICHARG =      2    charge: 1-file 2-atom 10-const
   ISPIN  =      1    spin polarized calculation?
   LNONCOLLINEAR =      F non collinear calculations
   LSORBIT =      F    spin-orbit coupling
   INIWAV =      1    electr: 0-lowe 1-rand  2-diag
   LASPH  =      F    aspherical Exc in radial PAW
 Electronic Relaxation 1
   ENCUT  =  250.0 eV  18.37 Ry    4.29 a.u.   8.48  8.48  8.48*2*pi/ulx,y,z
   ENINI  =  250.0     initial cutoff
   ENAUG  =  455.7 eV  augmentation charge cutoff
   NELM   =     80;   NELMIN=  2; NELMDL= -5     # of ELM steps 
   EDIFF  = 0.1E-07   stopping-criterion for ELM
   LREAL  =      F    real-space projection
   NLSPLINE    = F    spline interpolate recip. space projectors
   LCOMPAT=      F    compatible to vasp.4.4
   GGA_COMPAT  = T    GGA compatible to vasp.4.4-vasp.4.6
   LMAXPAW     = -100 max onsite density
   LMAXMIX     =    2 max onsite mixed and CHGCAR
   VOSKOWN=      0    Vosko Wilk Nusair interpolation
   ROPT   =    0.00000   0.00000   0.00000   0.00000
 Ionic relaxation
   EDIFFG = -.1E-01   stopping-criterion for IOM
   NSW    =      0    number of steps for IOM
   NBLOCK =      1;   KBLOCK =      1    inner block; outer block 
   IBRION =     -1    ionic relax: 0-MD 1-quasi-New 2-CG
   NFREE  =      0    steps in history (QN), initial steepest desc. (CG)
   ISIF   =      2    stress and relaxation
   IWAVPR =     10    prediction:  0-non 1-charg 2-wave 3-comb
   ISYM   =      2    0-nonsym 1-usesym 2-fastsym
   LCORR  =      T    Harris-Foulkes like correction to forces

   POTIM  = 0.5000    time-step for ionic-motion
   TEIN   =    0.0    initial temperature
   TEBEG  =    0.0;   TEEND  =   0.0 temperature during run
   SMASS  =  -3.00    Nose mass-parameter (am)
   estimated Nose-frequenzy (Omega)   =  0.10E-29 period in steps = 0.13E+47 mass=  -0.989E-27a.u.
   SCALEE = 1.0000    scale energy and forces
   NPACO  =    256;   APACO  = 10.0  distance and # of slots for P.C.
   PSTRESS=    0.0 pullay stress

  Mass of Ions in am
   POMASS =  92.91 95.94180.95183.85
  Ionic Valenz
   ZVAL   =  13.00 14.00 11.00 14.00
  Atomic Wigner-Seitz radii
   RWIGS  =  -1.00 -1.00 -1.00 -1.00
  virtual crystal weights 
   VCA    =   1.00  1.00  1.00  1.00
   NELECT =     209.0000    total number of electrons
   NUPDOWN=      -1.0000    fix difference up-down

 DOS related values:
   EMIN   =  10.00;   EMAX   =-10.00  energy-range for DOS
   EFERMI =   0.00
   ISMEAR =     0;   SIGMA  =   0.02  broadening in eV -4-tet -1-fermi 0-gaus

 Electronic relaxation 2 (details)
   IALGO  =     38    algorithm
   LDIAG  =      T    sub-space diagonalisation (order eigenvalues)
   LSUBROT=      F    optimize rotation matrix (better conditioning)
   TURBO    =      0    0=normal 1=particle mesh
   IRESTART =      0    0=no restart 2=restart with 2 vectors
   NREBOOT  =      0    no. of reboots
   NMIN     =      0    reboot dimension
   EREF     =   0.00    reference energy to select bands
   IMIX   =      4    mixing-type and parameters
     AMIX     =   0.40;   BMIX     =  1.00
     AMIX_MAG =   1.60;   BMIX_MAG =  1.00
     AMIN     =   0.10
     WC   =   100.;   INIMIX=   1;  MIXPRE=   1;  MAXMIX= -45

 Intra band minimization:
   WEIMIN = 0.0000     energy-eigenvalue tresh-hold
   EBREAK =  0.20E-10  absolut break condition
   DEPER  =   0.30     relativ break condition  

   TIME   =   0.40     timestep for ELM

  volume/ion in A,a.u.               =      17.81       120.16
  Fermi-wavevector in a.u.,A,eV,Ry     =   1.476492  2.790165 29.661081  2.180028
  Thomas-Fermi vector in A             =   2.591012
 
 Write flags
   LWAVE        =      F    write WAVECAR
   LDOWNSAMPLE  =      F    k-point downsampling of WAVECAR
   LCHARG       =      F    write CHGCAR
   LVTOT        =      F    write LOCPOT, total local potential
   LVHAR        =      F    write LOCPOT, Hartree potential only
   LELF         =      F    write electronic localiz. function (ELF)
   LORBIT       =      0    0 simple, 1 ext, 2 COOP (PROOUT), +10 PAW based schemes


 Dipole corrections
   LMONO  =      F    monopole corrections only (constant potential shift)
   LDIPOL =      F    correct potential (dipole corrections)
   IDIPOL =      0    1-x, 2-y, 3-z, 4-all directions 
   EPSILON=  1.0000000 bulk dielectric constant

 Core level calculations are selected ICORELEVEL =  1
 Exchange correlation treatment:
   GGA     =    PE    GGA type
   LEXCH   =     8    internal setting for exchange type
   LIBXC   =     F    Libxc                    
   VOSKOWN =     0    Vosko Wilk Nusair interpolation
   LHFCALC =     F    Hartree Fock is set to
   LHFONE  =     F    Hartree Fock one center treatment
   AEXX    =    0.0000 exact exchange contribution

 Linear response parameters
   LEPSILON=     F    determine dielectric tensor
   LRPA    =     F    only Hartree local field effects (RPA)
   LNABLA  =     F    use nabla operator in PAW spheres
   LVEL    =     F    velocity operator in full k-point grid
   CSHIFT  =0.1000    complex shift for real part using Kramers Kronig
   OMEGAMAX=  -1.0    maximum frequency
   DEG_THRESHOLD= 0.2000000E-02 threshold for treating states as degnerate
   RTIME   =   -0.100 relaxation time in fs
  (WPLASMAI=    0.000 imaginary part of plasma frequency in eV, 0.658/RTIME)
   DFIELD  = 0.0000000 0.0000000 0.0000000 field for delta impulse in time
 
  Optional k-point grid parameters
   LKPOINTS_OPT  =     F    use optional k-point grid
   KPOINTS_OPT_MODE=     1    mode for optional k-point grid
 
 Orbital magnetization related:
   ORBITALMAG=     F  switch on orbital magnetization
   LCHIMAG   =     F  perturbation theory with respect to B field
   DQ        =  0.001000  dq finite difference perturbation B field
   LLRAUG    =     F  two centre corrections for induced B field



--------------------------------------------------------------------------------------------------------


 Static calculation
 charge density and potential will be updated during run
 non-spin polarized calculation
 Variant of blocked Davidson
 Davidson routine will perform the subspace rotation
 perform sub-space diagonalisation
    after iterative eigenvector-optimisation
 modified Broyden-mixing scheme, WC =      100.0
 initial mixing is a Kerker type mixing with AMIX =  0.4000 and BMIX =      1.0000
 Hartree-type preconditioning will be used
 using additional bands           23
 reciprocal scheme for non local part
 use partial core corrections
 calculate Harris-corrections to forces 
   (improved forces if not selfconsistent)
 use gradient corrections 
 use of overlap-Matrix (Vanderbilt PP)
 Gauss-broadening in eV      SIGMA  =   0.02


--------------------------------------------------------------------------------------------------------


  energy-cutoff  :      250.00
  volume of cell :      284.89
      direct lattice vectors                 reciprocal lattice vectors
     6.580000000  0.000000000  0.000000000     0.151975684  0.000000000  0.000000000
     0.000000000  6.580000000  0.000000000     0.000000000  0.151975684  0.000000000
     0.000000000  0.000000000  6.580000000     0.000000000  0.000000000  0.151975684

  length of vectors
     6.580000000  6.580000000  6.580000000     0.151975684  0.151975684  0.151975684


 
 k-points in units of 2pi/SCALE and weight: K-Spacing Value to Generate K-Mesh: 0.03
   0.00000000  0.00000000  0.00000000       0.008
   0.03039514  0.00000000  0.00000000       0.016
   0.00000000  0.03039514  0.00000000       0.016
   0.00000000  0.00000000  0.03039514       0.016
   0.06079027  0.00000000  0.00000000       0.016
   0.00000000  0.06079027  0.00000000       0.016
   0.00000000  0.00000000  0.06079027       0.016
   0.03039514  0.03039514  0.00000000       0.016
   0.00000000  0.03039514  0.03039514       0.016
   0.03039514  0.00000000  0.03039514       0.016
  -0.03039514  0.03039514  0.00000000       0.016
  -0.03039514  0.00000000  0.03039514       0.016
   0.00000000 -0.03039514  0.03039514       0.016
   0.06079027  0.03039514  0.00000000       0.016
   0.00000000  0.06079027  0.03039514       0.016
   0.03039514  0.00000000  0.06079027       0.016
  -0.03039514  0.06079027  0.00000000       0.016
  -0.06079027  0.00000000  0.03039514       0.016
   0.00000000  0.03039514  0.06079027       0.016
   0.00000000 -0.06079027  0.03039514       0.016
  -0.03039514  0.00000000  0.06079027       0.016
   0.06079027  0.00000000  0.03039514       0.016
   0.00000000 -0.03039514  0.06079027       0.016
   0.06079027 -0.03039514  0.00000000       0.016
   0.03039514  0.06079027  0.00000000       0.016
   0.06079027  0.06079027  0.00000000       0.016
   0.00000000  0.06079027  0.06079027       0.016
   0.06079027  0.00000000  0.06079027       0.016
  -0.06079027  0.06079027  0.00000000       0.016
  -0.06079027  0.00000000  0.06079027       0.016
   0.00000000 -0.06079027  0.06079027       0.016
   0.03039514  0.03039514  0.03039514       0.016
  -0.03039514  0.03039514  0.03039514       0.016
  -0.03039514 -0.03039514  0.03039514       0.016
   0.03039514 -0.03039514  0.03039514       0.016
   0.06079027  0.03039514  0.03039514       0.016
   0.03039514  0.06079027  0.03039514       0.016
   0.03039514  0.03039514  0.06079027       0.016
  -0.03039514  0.06079027  0.03039514       0.016
  -0.06079027  0.03039514  0.03039514       0.016
  -0.03039514  0.03039514  0.06079027       0.016
  -0.06079027 -0.03039514  0.03039514       0.016
  -0.03039514 -0.06079027  0.03039514       0.016
  -0.03039514 -0.03039514  0.06079027       0.016
   0.03039514 -0.06079027  0.03039514       0.016
   0.06079027 -0.03039514  0.03039514       0.016
   0.03039514 -0.03039514  0.06079027       0.016
   0.06079027  0.06079027  0.03039514       0.016
   0.03039514  0.06079027  0.06079027       0.016
   0.06079027  0.03039514  0.06079027       0.016
  -0.06079027  0.06079027  0.03039514       0.016
  -0.06079027  0.03039514  0.06079027       0.016
  -0.03039514  0.06079027  0.06079027       0.016
  -0.06079027 -0.06079027  0.03039514       0.016
  -0.03039514 -0.06079027  0.06079027       0.016
  -0.06079027 -0.03039514  0.06079027       0.016
   0.06079027 -0.06079027  0.03039514       0.016
   0.06079027 -0.03039514  0.06079027       0.016
   0.03039514 -0.06079027  0.06079027       0.016
   0.06079027  0.06079027  0.06079027       0.016
  -0.06079027  0.06079027  0.06079027       0.016
  -0.06079027 -0.06079027  0.06079027       0.016
   0.06079027 -0.06079027  0.06079027       0.016
 
 k-points in reciprocal lattice and weights: K-Spacing Value to Generate K-Mesh: 0.03
   0.00000000  0.00000000  0.00000000       0.008
   0.20000000  0.00000000  0.00000000       0.016
   0.00000000  0.20000000  0.00000000       0.016
   0.00000000  0.00000000  0.20000000       0.016
   0.40000000  0.00000000  0.00000000       0.016
   0.00000000  0.40000000  0.00000000       0.016
   0.00000000  0.00000000  0.40000000       0.016
   0.20000000  0.20000000  0.00000000       0.016
   0.00000000  0.20000000  0.20000000       0.016
   0.20000000  0.00000000  0.20000000       0.016
  -0.20000000  0.20000000  0.00000000       0.016
  -0.20000000  0.00000000  0.20000000       0.016
   0.00000000 -0.20000000  0.20000000       0.016
   0.40000000  0.20000000  0.00000000       0.016
   0.00000000  0.40000000  0.20000000       0.016
   0.20000000  0.00000000  0.40000000       0.016
  -0.20000000  0.40000000  0.00000000       0.016
  -0.40000000  0.00000000  0.20000000       0.016
   0.00000000  0.20000000  0.40000000       0.016
   0.00000000 -0.40000000  0.20000000       0.016
  -0.20000000  0.00000000  0.40000000       0.016
   0.40000000  0.00000000  0.20000000       0.016
   0.00000000 -0.20000000  0.40000000       0.016
   0.40000000 -0.20000000  0.00000000       0.016
   0.20000000  0.40000000  0.00000000       0.016
   0.40000000  0.40000000  0.00000000       0.016
   0.00000000  0.40000000  0.40000000       0.016
   0.40000000  0.00000000  0.40000000       0.016
  -0.40000000  0.40000000  0.00000000       0.016
  -0.40000000  0.00000000  0.40000000       0.016
   0.00000000 -0.40000000  0.40000000       0.016
   0.20000000  0.20000000  0.20000000       0.016
  -0.20000000  0.20000000  0.20000000       0.016
  -0.20000000 -0.20000000  0.20000000       0.016
   0.20000000 -0.20000000  0.20000000       0.016
   0.40000000  0.20000000  0.20000000       0.016
   0.20000000  0.40000000  0.20000000       0.016
   0.20000000  0.20000000  0.40000000       0.016
  -0.20000000  0.40000000  0.20000000       0.016
  -0.40000000  0.20000000  0.20000000       0.016
  -0.20000000  0.20000000  0.40000000       0.016
  -0.40000000 -0.20000000  0.20000000       0.016
  -0.20000000 -0.40000000  0.20000000       0.016
  -0.20000000 -0.20000000  0.40000000       0.016
   0.20000000 -0.40000000  0.20000000       0.016
   0.40000000 -0.20000000  0.20000000       0.016
   0.20000000 -0.20000000  0.40000000       0.016
   0.40000000  0.40000000  0.20000000       0.016
   0.20000000  0.40000000  0.40000000       0.016
   0.40000000  0.20000000  0.40000000       0.016
  -0.40000000  0.40000000  0.20000000       0.016
  -0.40000000  0.20000000  0.40000000       0.016
  -0.20000000  0.40000000  0.40000000       0.016
  -0.40000000 -0.40000000  0.20000000       0.016
  -0.20000000 -0.40000000  0.40000000       0.016
  -0.40000000 -0.20000000  0.40000000       0.016
   0.40000000 -0.40000000  0.20000000       0.016
   0.40000000 -0.20000000  0.40000000       0.016
   0.20000000 -0.40000000  0.40000000       0.016
   0.40000000  0.40000000  0.40000000       0.016
  -0.40000000  0.40000000  0.40000000       0.016
  -0.40000000 -0.40000000  0.40000000       0.016
   0.40000000 -0.40000000  0.40000000       0.016
 
 position of ions in fractional coordinates (direct lattice) 
   0.00000000  0.00000000  0.50000000
   0.75000000  0.75000000  0.25000000
   0.00000000  0.50000000  0.50000000
   0.25000000  0.75000000  0.75000000
   0.25000000  0.25000000  0.25000000
   0.25000000  0.75000000  0.25000000
   0.75000000  0.25000000  0.25000000
   0.50000000  0.50000000  0.00000000
   0.00000000  0.00000000  0.00000000
   0.00000000  0.50000000  0.00000000
   0.50000000  0.00000000  0.50000000
   0.25000000  0.25000000  0.75000000
   0.50000000  0.50000000  0.50000000
   0.75000000  0.75000000  0.75000000
   0.50000000  0.00000000  0.00000000
   0.75000000  0.25000000  0.75000000
 
 position of ions in cartesian coordinates  (Angst):
   0.00000000  0.00000000  3.29000000
   4.93500000  4.93500000  1.64500000
   0.00000000  3.29000000  3.29000000
   1.64500000  4.93500000  4.93500000
   1.64500000  1.64500000  1.64500000
   1.64500000  4.93500000  1.64500000
   4.93500000  1.64500000  1.64500000
   3.29000000  3.29000000  0.00000000
   0.00000000  0.00000000  0.00000000
   0.00000000  3.29000000  0.00000000
   3.29000000  0.00000000  3.29000000
   1.64500000  1.64500000  4.93500000
   3.29000000  3.29000000  3.29000000
   4.93500000  4.93500000  4.93500000
   3.29000000  0.00000000  0.00000000
   4.93500000  1.64500000  4.93500000
 


--------------------------------------------------------------------------------------------------------


 k-point   1 :   0.0000 0.0000 0.0000  plane waves:    2517
 k-point   2 :   0.2000 0.0000 0.0000  plane waves:    2545
 k-point   3 :   0.0000 0.2000 0.0000  plane waves:    2545
 k-point   4 :   0.0000 0.0000 0.2000  plane waves:    2545
 k-point   5 :   0.4000 0.0000 0.0000  plane waves:    2569
 k-point   6 :   0.0000 0.4000 0.0000  plane waves:    2569
 k-point   7 :   0.0000 0.0000 0.4000  plane waves:    2569
 k-point   8 :   0.2000 0.2000 0.0000  plane waves:    2562
 k-point   9 :   0.0000 0.2000 0.2000  plane waves:    2562
 k-point  10 :   0.2000 0.0000 0.2000  plane waves:    2562
 k-point  11 :  -0.2000 0.2000 0.0000  plane waves:    2562
 k-point  12 :  -0.2000 0.0000 0.2000  plane waves:    2562
 k-point  13 :   0.0000-0.2000 0.2000  plane waves:    2562
 k-point  14 :   0.4000 0.2000 0.0000  plane waves:    2566
 k-point  15 :   0.0000 0.4000 0.2000  plane waves:    2566
 k-point  16 :   0.2000 0.0000 0.4000  plane waves:    2566
 k-point  17 :  -0.2000 0.4000 0.0000  plane waves:    2566
 k-point  18 :  -0.4000 0.0000 0.2000  plane waves:    2566
 k-point  19 :   0.0000 0.2000 0.4000  plane waves:    2566
 k-point  20 :   0.0000-0.4000 0.2000  plane waves:    2566
 k-point  21 :  -0.2000 0.0000 0.4000  plane waves:    2566
 k-point  22 :   0.4000 0.0000 0.2000  plane waves:    2566
 k-point  23 :   0.0000-0.2000 0.4000  plane waves:    2566
 k-point  24 :   0.4000-0.2000 0.0000  plane waves:    2566
 k-point  25 :   0.2000 0.4000 0.0000  plane waves:    2566
 k-point  26 :   0.4000 0.4000 0.0000  plane waves:    2570
 k-point  27 :   0.0000 0.4000 0.4000  plane waves:    2570
 k-point  28 :   0.4000 0.0000 0.4000  plane waves:    2570
 k-point  29 :  -0.4000 0.4000 0.0000  plane waves:    2570
 k-point  30 :  -0.4000 0.0000 0.4000  plane waves:    2570
 k-point  31 :   0.0000-0.4000 0.4000  plane waves:    2570
 k-point  32 :   0.2000 0.2000 0.2000  plane waves:    2572
 k-point  33 :  -0.2000 0.2000 0.2000  plane waves:    2572
 k-point  34 :  -0.2000-0.2000 0.2000  plane waves:    2572
 k-point  35 :   0.2000-0.2000 0.2000  plane waves:    2572
 k-point  36 :   0.4000 0.2000 0.2000  plane waves:    2546
 k-point  37 :   0.2000 0.4000 0.2000  plane waves:    2546
 k-point  38 :   0.2000 0.2000 0.4000  plane waves:    2546
 k-point  39 :  -0.2000 0.4000 0.2000  plane waves:    2546
 k-point  40 :  -0.4000 0.2000 0.2000  plane waves:    2546
 k-point  41 :  -0.2000 0.2000 0.4000  plane waves:    2546
 k-point  42 :  -0.4000-0.2000 0.2000  plane waves:    2546
 k-point  43 :  -0.2000-0.4000 0.2000  plane waves:    2546
 k-point  44 :  -0.2000-0.2000 0.4000  plane waves:    2546
 k-point  45 :   0.2000-0.4000 0.2000  plane waves:    2546
 k-point  46 :   0.4000-0.2000 0.2000  plane waves:    2546
 k-point  47 :   0.2000-0.2000 0.4000  plane waves:    2546
 k-point  48 :   0.4000 0.4000 0.2000  plane waves:    2549
 k-point  49 :   0.2000 0.4000 0.4000  plane waves:    2549
 k-point  50 :   0.4000 0.2000 0.4000  plane waves:    2549
 k-point  51 :  -0.4000 0.4000 0.2000  plane waves:    2549
 k-point  52 :  -0.4000 0.2000 0.4000  plane waves:    2549
 k-point  53 :  -0.2000 0.4000 0.4000  plane waves:    2549
 k-point  54 :  -0.4000-0.4000 0.2000  plane waves:    2549
 k-point  55 :  -0.2000-0.4000 0.4000  plane waves:    2549
 k-point  56 :  -0.4000-0.2000 0.4000  plane waves:    2549
 k-point  57 :   0.4000-0.4000 0.2000  plane waves:    2549
 k-point  58 :   0.4000-0.2000 0.4000  plane waves:    2549
 k-point  59 :   0.2000-0.4000 0.4000  plane waves:    2549
 k-point  60 :   0.4000 0.4000 0.4000  plane waves:    2533
 k-point  61 :  -0.4000 0.4000 0.4000  plane waves:    2533
 k-point  62 :  -0.4000-0.4000 0.4000  plane waves:    2533
 k-point  63 :   0.4000-0.4000 0.4000  plane waves:    2533

 maximum and minimum number of plane-waves per node :       235      194

 maximum number of plane-waves:      2572
 maximum index in each direction: 
   IXMAX=    8   IYMAX=    8   IZMAX=    8
   IXMIN=   -8   IYMIN=   -8   IZMIN=   -8


 parallel 3D FFT for wavefunctions:
    minimum data exchange during FFTs selected (reduces bandwidth)
 parallel 3D FFT for charge:
    minimum data exchange during FFTs selected (reduces bandwidth)


 total amount of memory used by VASP MPI-rank0    48253. kBytes
=======================================================================

   base      :      30000. kBytes
   nonl-proj :       8332. kBytes
   fftplans  :        456. kBytes
   grid      :        919. kBytes
   one-center:         31. kBytes
   wavefun   :       8515. kBytes
 
     INWAV:  cpu time      0.0000: real time      0.0003
 Broyden mixing: mesh for mixing (old mesh)
   NGX = 17   NGY = 17   NGZ = 17
  (NGX  = 72   NGY  = 72   NGZ  = 72)
  gives a total of   4913 points

 initial charge density was supplied:
 charge density of overlapping atoms calculated
 number of electron     209.0000000 magnetization 
 keeping initial charge density in first step


--------------------------------------------------------------------------------------------------------


 Maximum index for augmentation-charges          517 (set IRDMAX)


--------------------------------------------------------------------------------------------------------


 First call to EWALD:  gamma=   0.269
 Maximum number of real-space cells 3x 3x 3
 Maximum number of reciprocal cells 3x 3x 3

    FEWALD:  cpu time      0.0012: real time      0.0013


--------------------------------------- Iteration      1(   1)  ---------------------------------------


    POTLOK:  cpu time      0.0959: real time      0.3120
    SETDIJ:  cpu time      0.0036: real time      0.0037
     EDDAV:  cpu time      3.1923: real time      3.2051
       DOS:  cpu time      0.0052: real time      0.0052
    --------------------------------------------
      LOOP:  cpu time      3.2970: real time      3.5260

 eigenvalue-minimisations  : 16456
 total energy-change (2. order) : 0.1929286E+04  (-0.8030991E+04)
 number of electron     209.0000000 magnetization 
 augmentation part      209.0000000 magnetization 

 Free energy of the ion-electron system (eV)
  ---------------------------------------------------
  alpha Z        PSCENC =      1755.12879806
  Ewald energy   TEWEN  =    -21797.40399993
  -Hartree energ DENC   =     -4072.19342585
  -exchange      EXHF   =         0.00000000
  -V(xc)+E(xc)   XCENC  =       840.46403620
  PAW double counting   =     20212.93710550   -19903.51691788
  entropy T*S    EENTRO =        -0.00114263
  eigenvalues    EBANDS =      -626.07002522
  atomic energy  EATOM  =     25519.94140028
  Solvation  Ediel_sol  =         0.00000000
  ---------------------------------------------------
  free energy    TOTEN  =      1929.28582852 eV

  energy without entropy =     1929.28697115  energy(sigma->0) =     1929.28639984


--------------------------------------------------------------------------------------------------------




--------------------------------------- Iteration      1(   2)  ---------------------------------------


     EDDAV:  cpu time      3.1705: real time      3.1834
       DOS:  cpu time      0.0047: real time      0.0047
    --------------------------------------------
      LOOP:  cpu time      3.1752: real time      3.1881

 eigenvalue-minimisations  : 16576
 total energy-change (2. order) :-0.1934051E+04  (-0.1870180E+04)
 number of electron     209.0000000 magnetization 
 augmentation part      209.0000000 magnetization 

 Free energy of the ion-electron system (eV)
  ---------------------------------------------------
  alpha Z        PSCENC =      1755.12879806
  Ewald energy   TEWEN  =    -21797.40399993
  -Hartree energ DENC   =     -4072.19342585
  -exchange      EXHF   =         0.00000000
  -V(xc)+E(xc)   XCENC  =       840.46403620
  PAW double counting   =     20212.93710550   -19903.51691788
  entropy T*S    EENTRO =        -0.00239552
  eigenvalues    EBANDS =     -2560.11989490
  atomic energy  EATOM  =     25519.94140028
  Solvation  Ediel_sol  =         0.00000000
  ---------------------------------------------------
  free energy    TOTEN  =        -4.76529404 eV

  energy without entropy =       -4.76289853  energy(sigma->0) =       -4.76409629


--------------------------------------------------------------------------------------------------------




--------------------------------------- Iteration      1(   3)  ---------------------------------------


     EDDAV:  cpu time      4.4168: real time      4.4340
       DOS:  cpu time      0.0048: real time      0.0048
    --------------------------------------------
      LOOP:  cpu time      4.4217: real time      4.4388

 eigenvalue-minimisations  : 25536
 total energy-change (2. order) :-0.1736900E+03  (-0.1638032E+03)
 number of electron     209.0000000 magnetization 
 augmentation part      209.0000000 magnetization 

 Free energy of the ion-electron system (eV)
  ---------------------------------------------------
  alpha Z        PSCENC =      1755.12879806
  Ewald energy   TEWEN  =    -21797.40399993
  -Hartree energ DENC   =     -4072.19342585
  -exchange      EXHF   =         0.00000000
  -V(xc)+E(xc)   XCENC  =       840.46403620
  PAW double counting   =     20212.93710550   -19903.51691788
  entropy T*S    EENTRO =        -0.00233815
  eigenvalues    EBANDS =     -2733.80991802
  atomic energy  EATOM  =     25519.94140028
  Solvation  Ediel_sol  =         0.00000000
  ---------------------------------------------------
  free energy    TOTEN  =      -178.45525980 eV

  energy without entropy =     -178.45292165  energy(sigma->0) =     -178.45409072


--------------------------------------------------------------------------------------------------------




--------------------------------------- Iteration      1(   4)  ---------------------------------------


     EDDAV:  cpu time      4.2820: real time      4.2991
       DOS:  cpu time      0.0049: real time      0.0049
    --------------------------------------------
      LOOP:  cpu time      4.2869: real time      4.3040

 eigenvalue-minimisations  : 24728
 total energy-change (2. order) :-0.1206822E+02  (-0.1176045E+02)
 number of electron     209.0000000 magnetization 
 augmentation part      209.0000000 magnetization 

 Free energy of the ion-electron system (eV)
  ---------------------------------------------------
  alpha Z        PSCENC =      1755.12879806
  Ewald energy   TEWEN  =    -21797.40399993
  -Hartree energ DENC   =     -4072.19342585
  -exchange      EXHF   =         0.00000000
  -V(xc)+E(xc)   XCENC  =       840.46403620
  PAW double counting   =     20212.93710550   -19903.51691788
  entropy T*S    EENTRO =        -0.00324163
  eigenvalues    EBANDS =     -2745.87723134
  atomic energy  EATOM  =     25519.94140028
  Solvation  Ediel_sol  =         0.00000000
  ---------------------------------------------------
  free energy    TOTEN  =      -190.52347659 eV

  energy without entropy =     -190.52023496  energy(sigma->0) =     -190.52185578


--------------------------------------------------------------------------------------------------------




--------------------------------------- Iteration      1(   5)  ---------------------------------------


     EDDAV:  cpu time      4.2897: real time      4.3133
       DOS:  cpu time      0.0048: real time      0.0048
    CHARGE:  cpu time      0.0850: real time      0.0853
    MIXING:  cpu time      0.0002: real time      0.0002
    --------------------------------------------
      LOOP:  cpu time      4.3796: real time      4.4036

 eigenvalue-minimisations  : 25168
 total energy-change (2. order) :-0.7120895E+00  (-0.7076497E+00)
 number of electron     208.9999827 magnetization 
 augmentation part       40.0602079 magnetization 

 Broyden mixing:
  rms(total) = 0.51241E+01    rms(broyden)= 0.51230E+01
  rms(prec ) = 0.56910E+01
  weight for this iteration     100.00

 Free energy of the ion-electron system (eV)
  ---------------------------------------------------
  alpha Z        PSCENC =      1755.12879806
  Ewald energy   TEWEN  =    -21797.40399993
  -Hartree energ DENC   =     -4072.19342585
  -exchange      EXHF   =         0.00000000
  -V(xc)+E(xc)   XCENC  =       840.46403620
  PAW double counting   =     20212.93710550   -19903.51691788
  entropy T*S    EENTRO =        -0.00329783
  eigenvalues    EBANDS =     -2746.58926463
  atomic energy  EATOM  =     25519.94140028
  Solvation  Ediel_sol  =         0.00000000
  ---------------------------------------------------
  free energy    TOTEN  =      -191.23556609 eV

  energy without entropy =     -191.23226826  energy(sigma->0) =     -191.23391717


--------------------------------------------------------------------------------------------------------




--------------------------------------- Iteration      1(   6)  ---------------------------------------


    POTLOK:  cpu time      0.0044: real time      0.0045
    SETDIJ:  cpu time      0.0018: real time      0.0018
     EDDAV:  cpu time      3.5191: real time      3.5331
       DOS:  cpu time      0.0048: real time      0.0048
    CHARGE:  cpu time      0.0879: real time      0.0881
    MIXING:  cpu time      0.0003: real time      0.0003
    --------------------------------------------
      LOOP:  cpu time      3.6182: real time      3.6326

 eigenvalue-minimisations  : 19336
 total energy-change (2. order) : 0.7058375E+01  (-0.2236942E+01)
 number of electron     208.9999817 magnetization 
 augmentation part       41.7779718 magnetization 

 Broyden mixing:
  rms(total) = 0.19356E+01    rms(broyden)= 0.19353E+01
  rms(prec ) = 0.25716E+01
  weight for this iteration     100.00

 eigenvalues of (default mixing * dielectric matrix)
  average eigenvalue GAMMA=   1.4288
  1.4288

 Free energy of the ion-electron system (eV)
  ---------------------------------------------------
  alpha Z        PSCENC =      1755.12879806
  Ewald energy   TEWEN  =    -21797.40399993
  -Hartree energ DENC   =     -3851.40152291
  -exchange      EXHF   =         0.00000000
  -V(xc)+E(xc)   XCENC  =       829.53541829
  PAW double counting   =     23889.32228831   -23603.81756359
  entropy T*S    EENTRO =        -0.00363665
  eigenvalues    EBANDS =     -2925.47837264
  atomic energy  EATOM  =     25519.94140028
  Solvation  Ediel_sol  =         0.00000000
  ---------------------------------------------------
  free energy    TOTEN  =      -184.17719078 eV

  energy without entropy =     -184.17355413  energy(sigma->0) =     -184.17537245


--------------------------------------------------------------------------------------------------------




--------------------------------------- Iteration      1(   7)  ---------------------------------------


    POTLOK:  cpu time      0.0047: real time      0.0048
    SETDIJ:  cpu time      0.0018: real time      0.0018
     EDDAV:  cpu time      4.3182: real time      4.3371
       DOS:  cpu time      0.0048: real time      0.0048
    CHARGE:  cpu time      0.0879: real time      0.0882
    MIXING:  cpu time      0.0003: real time      0.0003
    --------------------------------------------
      LOOP:  cpu time      4.4177: real time      4.4370

 eigenvalue-minimisations  : 24040
 total energy-change (2. order) :-0.5504913E+00  (-0.1899003E+01)
 number of electron     208.9999823 magnetization 
 augmentation part       41.3964679 magnetization 

 Broyden mixing:
  rms(total) = 0.12102E+01    rms(broyden)= 0.12098E+01
  rms(prec ) = 0.28289E+01
  weight for this iteration     100.00

 eigenvalues of (default mixing * dielectric matrix)
  average eigenvalue GAMMA=   1.0561
  1.6080  0.5042

 Free energy of the ion-electron system (eV)
  ---------------------------------------------------
  alpha Z        PSCENC =      1755.12879806
  Ewald energy   TEWEN  =    -21797.40399993
  -Hartree energ DENC   =     -3794.57775168
  -exchange      EXHF   =         0.00000000
  -V(xc)+E(xc)   XCENC  =       826.11757935
  PAW double counting   =     25993.41313274   -25713.87940830
  entropy T*S    EENTRO =        -0.00222029
  eigenvalues    EBANDS =     -2973.46521225
  atomic energy  EATOM  =     25519.94140028
  Solvation  Ediel_sol  =         0.00000000
  ---------------------------------------------------
  free energy    TOTEN  =      -184.72768203 eV

  energy without entropy =     -184.72546174  energy(sigma->0) =     -184.72657189


--------------------------------------------------------------------------------------------------------




--------------------------------------- Iteration      1(   8)  ---------------------------------------


    POTLOK:  cpu time      0.0045: real time      0.0047
    SETDIJ:  cpu time      0.0017: real time      0.0017
     EDDAV:  cpu time      3.7778: real time      3.7929
       DOS:  cpu time      0.0049: real time      0.0049
    CHARGE:  cpu time      0.0866: real time      0.0869
    MIXING:  cpu time      0.0003: real time      0.0003
    --------------------------------------------
      LOOP:  cpu time      3.8758: real time      3.8913

 eigenvalue-minimisations  : 21472
 total energy-change (2. order) : 0.2877944E+01  (-0.9125934E+00)
 number of electron     208.9999820 magnetization 
 augmentation part       41.9378611 magnetization 

 Broyden mixing:
  rms(total) = 0.39123E+00    rms(broyden)= 0.39040E+00
  rms(prec ) = 0.56283E+00
  weight for this iteration     100.00

 eigenvalues of (default mixing * dielectric matrix)
  average eigenvalue GAMMA=   1.0557
  1.6832  1.0695  0.4144

 Free energy of the ion-electron system (eV)
  ---------------------------------------------------
  alpha Z        PSCENC =      1755.12879806
  Ewald energy   TEWEN  =    -21797.40399993
  -Hartree energ DENC   =     -3745.86757159
  -exchange      EXHF   =         0.00000000
  -V(xc)+E(xc)   XCENC  =       823.92979952
  PAW double counting   =     27011.74784885   -26737.28724251
  entropy T*S    EENTRO =        -0.00331731
  eigenvalues    EBANDS =     -3012.03545341
  atomic energy  EATOM  =     25519.94140028
  Solvation  Ediel_sol  =         0.00000000
  ---------------------------------------------------
  free energy    TOTEN  =      -181.84973804 eV

  energy without entropy =     -181.84642073  energy(sigma->0) =     -181.84807939


--------------------------------------------------------------------------------------------------------




--------------------------------------- Iteration      1(   9)  ---------------------------------------


    POTLOK:  cpu time      0.0045: real time      0.0046
    SETDIJ:  cpu time      0.0017: real time      0.0017
     EDDAV:  cpu time      3.8980: real time      3.9128
       DOS:  cpu time      0.0048: real time      0.0048
    CHARGE:  cpu time      0.0862: real time      0.0864
    MIXING:  cpu time      0.0003: real time      0.0003
    --------------------------------------------
      LOOP:  cpu time      3.9955: real time      4.0107

 eigenvalue-minimisations  : 22288
 total energy-change (2. order) :-0.6277305E-01  (-0.1493765E+00)
 number of electron     208.9999822 magnetization 
 augmentation part       41.9439687 magnetization 

 Broyden mixing:
  rms(total) = 0.29782E+00    rms(broyden)= 0.29773E+00
  rms(prec ) = 0.43905E+00
  weight for this iteration     100.00

 eigenvalues of (default mixing * dielectric matrix)
  average eigenvalue GAMMA=   1.1313
  1.7991  1.7991  0.5371  0.3901

 Free energy of the ion-electron system (eV)
  ---------------------------------------------------
  alpha Z        PSCENC =      1755.12879806
  Ewald energy   TEWEN  =    -21797.40399993
  -Hartree energ DENC   =     -3743.11125060
  -exchange      EXHF   =         0.00000000
  -V(xc)+E(xc)   XCENC  =       823.81037411
  PAW double counting   =     27247.85636160   -26972.31421735
  entropy T*S    EENTRO =        -0.00333874
  eigenvalues    EBANDS =     -3015.81663852
  atomic energy  EATOM  =     25519.94140028
  Solvation  Ediel_sol  =         0.00000000
  ---------------------------------------------------
  free energy    TOTEN  =      -181.91251110 eV

  energy without entropy =     -181.90917236  energy(sigma->0) =     -181.91084173


--------------------------------------------------------------------------------------------------------




--------------------------------------- Iteration      1(  10)  ---------------------------------------


    POTLOK:  cpu time      0.0046: real time      0.0047
    SETDIJ:  cpu time      0.0017: real time      0.0017
     EDDAV:  cpu time      3.8201: real time      3.8355
       DOS:  cpu time      0.0047: real time      0.0048
    CHARGE:  cpu time      0.0868: real time      0.0871
    MIXING:  cpu time      0.0003: real time      0.0003
    --------------------------------------------
      LOOP:  cpu time      3.9183: real time      3.9342

 eigenvalue-minimisations  : 21424
 total energy-change (2. order) : 0.2370323E-01  (-0.3193582E-01)
 number of electron     208.9999822 magnetization 
 augmentation part       41.8959073 magnetization 

 Broyden mixing:
  rms(total) = 0.15038E+00    rms(broyden)= 0.15033E+00
  rms(prec ) = 0.24672E+00
  weight for this iteration     100.00

 eigenvalues of (default mixing * dielectric matrix)
  average eigenvalue GAMMA=   1.1578
  2.4669  1.7366  0.7910  0.3973  0.3973

 Free energy of the ion-electron system (eV)
  ---------------------------------------------------
  alpha Z        PSCENC =      1755.12879806
  Ewald energy   TEWEN  =    -21797.40399993
  -Hartree energ DENC   =     -3745.34776935
  -exchange      EXHF   =         0.00000000
  -V(xc)+E(xc)   XCENC  =       823.89298979
  PAW double counting   =     27412.14160957   -27134.13339657
  entropy T*S    EENTRO =        -0.00351014
  eigenvalues    EBANDS =     -3016.10492956
  atomic energy  EATOM  =     25519.94140028
  Solvation  Ediel_sol  =         0.00000000
  ---------------------------------------------------
  free energy    TOTEN  =      -181.88880787 eV

  energy without entropy =     -181.88529772  energy(sigma->0) =     -181.88705280


--------------------------------------------------------------------------------------------------------




--------------------------------------- Iteration      1(  11)  ---------------------------------------


    POTLOK:  cpu time      0.0046: real time      0.0048
    SETDIJ:  cpu time      0.0017: real time      0.0017
     EDDAV:  cpu time      3.7623: real time      3.7769
       DOS:  cpu time      0.0042: real time      0.0042
    CHARGE:  cpu time      0.0853: real time      0.0856
    MIXING:  cpu time      0.0003: real time      0.0003
    --------------------------------------------
      LOOP:  cpu time      3.8585: real time      3.8736

 eigenvalue-minimisations  : 21080
 total energy-change (2. order) : 0.3810290E-02  (-0.1202191E-01)
 number of electron     208.9999822 magnetization 
 augmentation part       41.8461617 magnetization 

 Broyden mixing:
  rms(total) = 0.54103E-01    rms(broyden)= 0.54023E-01
  rms(prec ) = 0.14997E+00
  weight for this iteration     100.00

 eigenvalues of (default mixing * dielectric matrix)
  average eigenvalue GAMMA=   1.0661
  2.5310  1.7025  0.8694  0.5141  0.4229  0.3569

 Free energy of the ion-electron system (eV)
  ---------------------------------------------------
  alpha Z        PSCENC =      1755.12879806
  Ewald energy   TEWEN  =    -21797.40399993
  -Hartree energ DENC   =     -3748.51882693
  -exchange      EXHF   =         0.00000000
  -V(xc)+E(xc)   XCENC  =       824.02704859
  PAW double counting   =     27510.68721501   -27230.36004590
  entropy T*S    EENTRO =        -0.00342371
  eigenvalues    EBANDS =     -3015.38316304
  atomic energy  EATOM  =     25519.94140028
  Solvation  Ediel_sol  =         0.00000000
  ---------------------------------------------------
  free energy    TOTEN  =      -181.88499758 eV

  energy without entropy =     -181.88157386  energy(sigma->0) =     -181.88328572


--------------------------------------------------------------------------------------------------------




--------------------------------------- Iteration      1(  12)  ---------------------------------------


    POTLOK:  cpu time      0.0046: real time      0.0048
    SETDIJ:  cpu time      0.0017: real time      0.0017
     EDDAV:  cpu time      3.7977: real time      3.8129
       DOS:  cpu time      0.0050: real time      0.0050
    CHARGE:  cpu time      0.0861: real time      0.0863
    MIXING:  cpu time      0.0003: real time      0.0003
    --------------------------------------------
      LOOP:  cpu time      3.8954: real time      3.9111

 eigenvalue-minimisations  : 21288
[...]
     33     -24.8967      2.00000
     34     -24.8259      2.00000
     35     -24.4499      2.00000
     36     -24.2132      2.00000
     37     -24.2015      2.00000
     38     -24.1887      2.00000
     39     -24.1646      2.00000
     40     -24.1411      2.00000
     41     -24.1203      2.00000
     42     -24.0828      2.00000
     43     -23.8758      2.00000
     44     -21.1467      2.00000
     45     -21.1006      2.00000
     46     -21.0897      2.00000
     47     -21.0541      2.00000
     48     -21.0494      2.00000
     49     -20.9621      2.00000
     50     -20.8197      2.00000
     51     -20.8067      2.00000
     52     -20.7862      2.00000
     53     -20.7762      2.00000
     54     -20.7674      2.00000
     55     -20.7353      2.00000
     56     -20.5805      2.00000
     57     -20.5524      2.00000
     58     -20.5398      2.00000
     59     -20.5074      2.00000
     60     -20.4980      2.00000
     61     -20.4587      2.00000
     62       4.2665      2.00000
     63       4.9134      2.00000
     64       5.1041      2.00000
     65       5.3163      2.00000
     66       5.7941      2.00000
     67       5.9127      2.00000
     68       6.1433      2.00000
     69       6.7131      2.00000
     70       6.8702      2.00000
     71       6.8897      2.00000
     72       6.9644      2.00000
     73       7.0004      2.00000
     74       7.0328      2.00000
     75       7.1542      2.00000
     76       7.2271      2.00000
     77       7.2627      2.00000
     78       7.2856      2.00000
     79       7.3350      2.00000
     80       7.3509      2.00000
     81       7.3879      2.00000
     82       7.6353      2.00000
     83       7.6994      2.00000
     84       7.7841      2.00000
     85       7.8296      2.00000
     86       7.8734      2.00000
     87       7.9101      2.00000
     88       7.9529      2.00000
     89       7.9758      2.00000
     90       7.9949      2.00000
     91       8.0352      2.00000
     92       8.0990      2.00000
     93       8.1309      2.00000
     94       8.1600      2.00000
     95       8.1746      2.00000
     96       8.2022      2.00000
     97       8.2216      2.00000
     98       8.2441      2.00000
     99       8.2875      2.00000
    100       8.3042      2.00000
    101       8.3372      2.00000
    102       8.3827      2.00000
    103       8.4217      2.00000
    104       8.4576      2.00000
    105       8.5213      2.00000
    106       8.5967      2.00000
    107       8.6132      2.00000
    108       8.6596      2.00000
    109       9.0106      2.00000
    110      11.7213      0.00000
    111      11.7314      0.00000
    112      11.8175      0.00000
    113      11.8309      0.00000
    114      11.9875      0.00000
    115      12.0261      0.00000
    116      12.1290      0.00000
    117      12.1724      0.00000
    118      12.2183      0.00000
    119      12.2523      0.00000
    120      12.3244      0.00000
    121      12.3835      0.00000
    122      12.4517      0.00000
    123      12.4760      0.00000
    124      12.5828      0.00000
    125      12.6519      0.00000
    126      12.7907      0.00000
    127      12.8118      0.00000
    128      12.8804      0.00000

 k-point    63 :       0.4000   -0.4000    0.4000
  band No.  band energies     occupation 
      1     -63.9824      2.00000
      2     -63.9726      2.00000
      3     -63.9251      2.00000
      4     -63.9067      2.00000
      5     -50.9201      2.00000
      6     -50.8946      2.00000
      7     -50.8681      2.00000
      8     -44.7661      2.00000
      9     -44.7226      2.00000
     10     -44.7111      2.00000
     11     -44.6745      2.00000
     12     -44.6453      2.00000
     13     -44.6125      2.00000
     14     -28.3608      2.00000
     15     -28.3259      2.00000
     16     -28.2776      2.00000
     17     -28.2697      2.00000
     18     -28.2012      2.00000
     19     -28.1730      2.00000
     20     -28.1448      2.00000
     21     -28.1258      2.00000
     22     -28.0417      2.00000
     23     -28.0334      2.00000
     24     -27.9847      2.00000
     25     -27.9699      2.00000
     26     -25.1914      2.00000
     27     -25.1567      2.00000
     28     -25.0500      2.00000
     29     -25.0391      2.00000
     30     -25.0070      2.00000
     31     -24.9960      2.00000
     32     -24.9866      2.00000
     33     -24.8971      2.00000
     34     -24.8255      2.00000
     35     -24.4477      2.00000
     36     -24.2145      2.00000
     37     -24.2014      2.00000
     38     -24.1921      2.00000
     39     -24.1630      2.00000
     40     -24.1462      2.00000
     41     -24.1211      2.00000
     42     -24.0767      2.00000
     43     -23.8746      2.00000
     44     -21.1465      2.00000
     45     -21.1026      2.00000
     46     -21.0886      2.00000
     47     -21.0565      2.00000
     48     -21.0474      2.00000
     49     -20.9621      2.00000
     50     -20.8216      2.00000
     51     -20.8025      2.00000
     52     -20.7912      2.00000
     53     -20.7770      2.00000
     54     -20.7632      2.00000
     55     -20.7338      2.00000
     56     -20.5807      2.00000
     57     -20.5533      2.00000
     58     -20.5391      2.00000
     59     -20.5099      2.00000
     60     -20.4974      2.00000
     61     -20.4577      2.00000
     62       4.2941      2.00000
     63       4.8453      2.00000
     64       5.0481      2.00000
     65       5.4226      2.00000
     66       5.7428      2.00000
     67       6.0134      2.00000
     68       6.1241      2.00000
     69       6.6680      2.00000
     70       6.8689      2.00000
     71       6.8983      2.00000
     72       6.9524      2.00000
     73       6.9753      2.00000
     74       7.0814      2.00000
     75       7.1478      2.00000
     76       7.2210      2.00000
     77       7.2298      2.00000
     78       7.2933      2.00000
     79       7.3304      2.00000
     80       7.3645      2.00000
     81       7.4071      2.00000
     82       7.6403      2.00000
     83       7.7081      2.00000
     84       7.7889      2.00000
     85       7.8212      2.00000
     86       7.8942      2.00000
     87       7.9131      2.00000
     88       7.9521      2.00000
     89       7.9773      2.00000
     90       7.9911      2.00000
     91       8.0230      2.00000
     92       8.0741      2.00000
     93       8.1228      2.00000
     94       8.1423      2.00000
     95       8.1697      2.00000
     96       8.2046      2.00000
     97       8.2196      2.00000
     98       8.2672      2.00000
     99       8.2877      2.00000
    100       8.3141      2.00000
    101       8.3227      2.00000
    102       8.3879      2.00000
    103       8.4376      2.00000
    104       8.4524      2.00000
    105       8.5298      2.00000
    106       8.5646      2.00000
    107       8.6130      2.00000
    108       8.6621      2.00000
    109       9.0258      2.00000
    110      11.6161      0.00000
    111      11.7524      0.00000
    112      11.8351      0.00000
    113      11.9059      0.00000
    114      11.9713      0.00000
    115      12.0386      0.00000
    116      12.1003      0.00000
    117      12.1213      0.00000
    118      12.2509      0.00000
    119      12.2884      0.00000
    120      12.3828      0.00000
    121      12.4059      0.00000
    122      12.4612      0.00000
    123      12.5147      0.00000
    124      12.5893      0.00000
    125      12.6533      0.00000
    126      12.7054      0.00000
    127      12.7792      0.00000
    128      12.8720      0.00000


--------------------------------------------------------------------------------------------------------


 soft charge-density along one line, spin component           1
         0         1         2         3         4         5         6         7         8         9
 total charge-density along one line
 
 pseudopotential strength for first ion, spin component:           1
  5.728 -20.227   0.001   0.000  -0.002  -0.002  -0.000   0.005
-20.227   9.151   0.001   0.000  -0.003  -0.000  -0.000   0.000
  0.001   0.001  -9.743   0.002   0.002   5.968  -0.002  -0.002
  0.000   0.000   0.002  -9.746  -0.000  -0.002   5.970   0.000
 -0.002  -0.003   0.002  -0.000  -9.747  -0.002   0.000   5.971
 -0.002  -0.000   5.968  -0.002  -0.002   7.966   0.001   0.001
 -0.000  -0.000  -0.002   5.970   0.000   0.001   7.965  -0.000
  0.005   0.000  -0.002   0.000   5.971   0.001  -0.000   7.964
  0.001   0.001  -0.002   0.000   0.001   0.003  -0.000  -0.001
  0.001   0.001   0.000   0.001   0.000  -0.000  -0.001  -0.000
 -0.001   0.000  -0.000   0.000   0.001   0.000  -0.000  -0.001
 -0.000  -0.000   0.000  -0.002   0.000  -0.000   0.003  -0.000
 -0.001  -0.001  -0.001  -0.000  -0.002   0.001   0.000   0.002
  0.002   0.001  -0.003   0.000   0.001   0.004  -0.001  -0.001
  0.002   0.001   0.000   0.001   0.000  -0.001  -0.001  -0.001
 -0.001   0.000  -0.000   0.000   0.001   0.000  -0.000  -0.002
 -0.000  -0.000   0.000  -0.003   0.000  -0.001   0.004  -0.001
 -0.002  -0.001  -0.001  -0.000  -0.002   0.001   0.000   0.003
 total augmentation occupancy for first ion, spin component:           1
  1.995  -0.046  -0.000  -0.000   0.000  -0.000  -0.000   0.000   0.005   0.005  -0.001   0.002  -0.001  -0.004  -0.004   0.001
 -0.046   1.354  -0.001  -0.002   0.002  -0.001   0.000   0.003   0.018   0.020  -0.029   0.003  -0.012  -0.008  -0.009   0.014
 -0.000  -0.001   1.996  -0.000  -0.000  -0.029   0.001   0.001   0.011  -0.009  -0.000  -0.005  -0.001  -0.007   0.006   0.000
 -0.000  -0.002  -0.000   1.996  -0.000   0.001  -0.029   0.001  -0.005  -0.004  -0.002   0.011   0.000   0.003   0.003   0.002
  0.000   0.002  -0.000  -0.000   1.996   0.001   0.001  -0.029  -0.005  -0.005   0.002  -0.009  -0.003   0.003   0.003  -0.001
 -0.000  -0.001  -0.029   0.001   0.001   0.068  -0.001  -0.001  -0.007   0.015   0.002   0.008   0.004   0.006  -0.009  -0.001
 -0.000   0.000   0.001  -0.029   0.001  -0.001   0.065  -0.001   0.007   0.005  -0.002  -0.007   0.000  -0.005  -0.004   0.001
  0.000   0.003   0.001   0.001  -0.029  -0.001  -0.001   0.068   0.005   0.008  -0.007   0.015   0.011  -0.004  -0.005   0.003
  0.005   0.018   0.011  -0.005  -0.005  -0.007   0.007   0.005   3.298  -0.037  -0.037   0.028  -0.002  -1.385   0.023   0.017
  0.005   0.020  -0.009  -0.004  -0.005   0.015   0.005   0.008  -0.037   3.300   0.017   0.034  -0.034   0.023  -1.380  -0.008
 -0.001  -0.029  -0.000  -0.002   0.002   0.002  -0.002  -0.007  -0.037   0.017   2.697   0.006   0.029   0.016  -0.007  -1.222
  0.002   0.003  -0.005   0.011  -0.009   0.008  -0.007   0.015   0.028   0.034   0.006   3.315   0.016  -0.011  -0.013  -0.002
 -0.001  -0.012  -0.001   0.000  -0.003   0.004   0.000   0.011  -0.002  -0.034   0.029   0.016   2.754   0.000   0.014  -0.010
 -0.004  -0.008  -0.007   0.003   0.003   0.006  -0.005  -0.004  -1.385   0.023   0.016  -0.011   0.000   0.592  -0.013  -0.008
 -0.004  -0.009   0.006   0.003   0.003  -0.009  -0.004  -0.005   0.023  -1.380  -0.007  -0.013   0.014  -0.013   0.588   0.003
  0.001   0.014   0.000   0.002  -0.001  -0.001   0.001   0.003   0.017  -0.008  -1.222  -0.002  -0.010  -0.008   0.003   0.560
 -0.002   0.004   0.003  -0.007   0.006  -0.005   0.006  -0.009  -0.011  -0.013  -0.002  -1.387  -0.006   0.005   0.005   0.000
  0.001   0.004   0.000  -0.000   0.002  -0.002   0.000  -0.005   0.000   0.015  -0.010  -0.006  -1.251  -0.000  -0.006   0.003


------------------------ aborting loop because EDIFF is reached ----------------------------------------


    CHARGE:  cpu time      0.1173: real time      0.1177
    FORLOC:  cpu time      0.0005: real time      0.0005
    FORNL :  cpu time      0.8087: real time      0.8109
    STRESS:  cpu time      1.0066: real time      1.0130
    FORCOR:  cpu time      0.0045: real time      0.0046
    FORHAR:  cpu time      0.0014: real time      0.0014
    MIXING:  cpu time      0.0008: real time      0.0008
    OFIELD:  cpu time      0.0000: real time      0.0000

  FORCE on cell =-STRESS in cart. coord.  units (eV):
  Direction    XX          YY          ZZ          XY          YZ          ZX
  --------------------------------------------------------------------------------------
  Alpha Z  1755.12880  1755.12880  1755.12880
  Ewald   -7284.02956 -7258.80210 -7254.64160   -18.96915    18.96915   -12.64610
  Hartree  1232.55848  1255.40034  1260.40232   -18.32611    17.64934   -11.04171
  E(xc)    -960.12528  -960.11405  -960.14072     0.05377    -0.03281     0.00496
  Local    1645.10522  1598.36166  1588.51874    35.62575   -35.48810    23.27444
  n-local  -302.47324  -305.12555  -303.58476     0.43333    -0.42985    -0.36038
  augment   541.99196   541.87195   541.96168     0.24496    -0.19225     0.14964
  Kinetic  3348.27893  3348.96475  3348.64993     0.10345    -0.02524     0.38136
  Fock        0.00000     0.00000     0.00000     0.00000     0.00000     0.00000
  -------------------------------------------------------------------------------------
  Total     -23.56469   -24.31420   -23.70562    -0.83400     0.45023    -0.23779
  in kB    -132.52403  -136.73915  -133.31660    -4.69026     2.53202    -1.33731
  external pressure =     -134.19 kB  Pullay stress =        0.00 kB


 VOLUME and BASIS-vectors are now :
 -----------------------------------------------------------------------------
  energy-cutoff  :      250.00
  volume of cell :      284.89
      direct lattice vectors                 reciprocal lattice vectors
     6.580000000  0.000000000  0.000000000     0.151975684  0.000000000  0.000000000
     0.000000000  6.580000000  0.000000000     0.000000000  0.151975684  0.000000000
     0.000000000  0.000000000  6.580000000     0.000000000  0.000000000  0.151975684

  length of vectors
     6.580000000  6.580000000  6.580000000     0.151975684  0.151975684  0.151975684


 FORCES acting on ions
    electron-ion (+dipol)            ewald-force                    non-local-force                 convergence-correction
 -----------------------------------------------------------------------------------------------
   -.517E+02 -.997E+01 -.992E+01   0.510E+02 0.102E+02 0.102E+02   0.129E+00 -.623E-01 -.209E+00   0.748E-05 -.288E-04 -.288E-04
   -.209E+02 0.512E-02 -.209E+02   0.204E+02 0.296E-13 0.204E+02   0.180E+00 -.583E-02 0.639E-01   -.441E-05 0.249E-04 -.164E-05
   -.517E+02 0.997E+01 -.989E+01   0.510E+02 -.102E+02 0.102E+02   0.140E+00 0.729E-01 -.208E+00   0.706E-05 0.280E-04 -.223E-04
   0.209E+02 0.135E-01 0.208E+02   -.204E+02 0.610E-13 -.204E+02   -.179E+00 -.922E-02 -.298E-01   -.191E-04 0.173E-04 0.229E-04
   0.209E+02 0.287E-02 -.208E+02   -.204E+02 -.853E-13 0.204E+02   -.195E+00 -.104E-01 0.453E-01   -.326E-05 -.251E-04 -.985E-05
   0.209E+02 0.190E-01 -.208E+02   -.204E+02 0.603E-13 0.204E+02   -.168E+00 -.884E-02 0.282E-01   -.490E-05 0.232E-04 -.267E-04
   -.224E+02 -.413E-02 -.223E+02   0.220E+02 -.170E-12 0.220E+02   0.750E-01 0.560E-02 -.491E-02   -.826E-06 -.231E-04 0.177E-04
   0.554E+02 0.108E+02 0.107E+02   -.549E+02 -.110E+02 -.110E+02   -.174E-01 0.256E-01 0.121E+00   -.469E-04 0.398E-04 0.373E-04
   -.554E+02 -.108E+02 0.107E+02   0.549E+02 0.110E+02 -.110E+02   0.382E-01 -.951E-02 0.104E+00   0.380E-04 -.342E-04 0.251E-04
   -.440E+02 0.834E+01 0.833E+01   0.431E+02 -.863E+01 -.863E+01   0.872E-01 0.515E-01 0.114E+00   0.279E-04 0.275E-04 0.196E-04
   0.439E+02 -.837E+01 -.836E+01   -.431E+02 0.863E+01 0.863E+01   0.166E-01 -.338E-01 -.111E+00   -.397E-06 -.212E-04 -.359E-04
   0.178E+02 -.137E-02 0.177E+02   -.173E+02 -.141E-13 -.173E+02   -.818E-01 -.547E-02 0.268E-01   -.183E-04 -.102E-04 0.665E-05
   0.554E+02 0.108E+02 -.108E+02   -.549E+02 -.110E+02 0.110E+02   0.115E+00 -.399E-01 0.217E-01   0.812E-05 0.299E-04 -.375E-04
   -.223E+02 0.486E-02 0.223E+02   0.220E+02 -.758E-13 -.220E+02   -.791E-01 -.339E-02 0.927E-01   0.737E-05 0.228E-04 -.631E-07
   0.555E+02 -.108E+02 0.107E+02   -.549E+02 0.110E+02 -.110E+02   0.208E-01 0.791E-02 0.990E-02   -.206E-04 -.450E-04 0.460E-04
   -.224E+02 -.938E-02 0.223E+02   0.220E+02 0.114E-12 -.220E+02   -.319E-01 0.779E-02 0.242E-01   0.174E-04 -.207E-04 -.829E-05
 -----------------------------------------------------------------------------------------------
   -.482E-01 0.174E-01 -.890E-01   -.426E-13 -.895E-14 -.711E-13   0.482E-01 -.174E-01 0.890E-01   -.544E-05 0.516E-05 0.414E-05
 
 
 POSITION                                       TOTAL-FORCE (eV/Angst)
 -----------------------------------------------------------------------------------
      0.00000      0.00000      3.29000        -0.549262      0.161665      0.072701
      4.93500      4.93500      1.64500        -0.367386     -0.000688     -0.417881
      0.00000      3.29000      3.29000        -0.544817     -0.157275      0.099373
      1.64500      4.93500      4.93500         0.302662      0.004340      0.405380
      1.64500      1.64500      1.64500         0.318284     -0.007554     -0.384449
      1.64500      4.93500      1.64500         0.337799      0.010156     -0.397235
      4.93500      1.64500      1.64500        -0.369867      0.001451     -0.311863
      3.29000      3.29000      0.00000         0.481518     -0.149444     -0.168747
      0.00000      0.00000      0.00000        -0.456863      0.145286     -0.191149
      0.00000      3.29000      0.00000        -0.766496     -0.236859     -0.184315
      3.29000      0.00000      3.29000         0.764965      0.223636      0.157469
      1.64500      1.64500      4.93500         0.429578     -0.006857      0.511082
      3.29000      3.29000      3.29000         0.639223     -0.195978      0.237407
      4.93500      4.93500      4.93500        -0.451044      0.001491      0.397927
      3.29000      0.00000      0.00000         0.655884      0.208247     -0.231213
      4.93500      1.64500      4.93500        -0.424179     -0.001616      0.405513
 -----------------------------------------------------------------------------------
    total drift:                               -0.000009     -0.000006      0.000022


--------------------------------------------------------------------------------------------------------



  FREE ENERGIE OF THE ION-ELECTRON SYSTEM (eV)
  ---------------------------------------------------
  free  energy   TOTEN  =      -181.87759747 eV

  energy  without entropy=     -181.87411316  energy(sigma->0) =     -181.87585532
 


--------------------------------------------------------------------------------------------------------


    POTLOK:  cpu time      0.0062: real time      0.0264


--------------------------------------------------------------------------------------------------------


     LOOP+:  cpu time    165.2506: real time    183.4375
    4ORBIT:  cpu time      0.0000: real time      0.0000

 total amount of memory used by VASP MPI-rank0    48253. kBytes
=======================================================================

   base      :      30000. kBytes
   nonl-proj :       8332. kBytes
   fftplans  :        456. kBytes
   grid      :        919. kBytes
   one-center:         31. kBytes
   wavefun   :       8515. kBytes
 
  
  
 General timing and accounting informations for this job:
 ========================================================
  
                  Total CPU time used (sec):      168.858
                            User time (sec):      165.882
                          System time (sec):        2.976
                         Elapsed time (sec):      188.208
  
                   Maximum memory used (kb):       90592.
                   Average memory used (kb):          N/A
  
                          Minor page faults:        10299
                          Major page faults:            0
                 Voluntary context switches:          266
