 vasp.6.3.1 04May22 (build Jul 26 2022 04:02:40) complex                        
  
 executed on             LinuxIFC date 2023.11.30  04:27:03
 running on   48 total cores
 distrk:  each k-point on   48 cores,    1 groups
 distr:  one band on NCORE=  12 cores,    4 groups


--------------------------------------------------------------------------------------------------------


 INCAR:
   ISTART = 0
   NWRITE = 2
   PREC = Accurate
   ENCUT = 250
   GGA = PE
   NSW = 0
   ISIF = 2
   ISYM = 2
   NBLOCK = 1
   KBLOCK = 1
   IBRION = -1
   NELM = 80
   EDIFF = 1E-08
   EDIFFG = -0.01
   ALGO = Normal
   LDIAG = .TRUE.
   LREAL = .FALSE.
   ISMEAR = 0
   SIGMA = 0.02
   ICHARG = 2
   LPLANE = .TRUE.
   NPAR = 4
   LSCALU = .FALSE.
   NSIM = 4
   LWAVE = .FALSE.
   LCHARG = .FALSE.
   ICORELEVEL = 1

 POTCAR:    PAW_PBE Nb_sv 25May2007               
 POTCAR:    PAW_PBE Mo_sv 02Feb2006               
 POTCAR:    PAW_PBE Ta_pv 07Sep2000               
 POTCAR:    PAW_PBE W_sv 04Sep2015                
 POTCAR:    PAW_PBE Nb_sv 25May2007               
   SHA256 =  0e8fc07c9fcd1164cf2ade22d0399fd28f85e91cd773dfa6cf24839a48c95e24 Nb_sv/POTCAR          
   COPYR  = (c) Copyright 25May2007 Georg Kresse                                                    
   COPYR  = This file is part of the software VASP. Any use, copying, and all other rights are regul
   COPYR  = If you do not have a valid VASP license, you may not use, copy or distribute this file. 
   VRHFIN =Nb: 4p5s4d                                                                               
   LEXCH  = PE                                                                                      
   EATOM  =  1555.1913 eV,  114.3033 Ry                                                             
                                                                                                    
   TITEL  = PAW_PBE Nb_sv 25May2007                                                                 
   LULTRA =        F    use ultrasoft PP ?                                                          
   IUNSCR =        1    unscreen: 0-lin 1-nonlin 2-no                                               
   RPACOR =    1.800    partial core radius                                                         
   POMASS =   92.910; ZVAL   =   13.000    mass and valenz                                          
   RCORE  =    2.400    outmost cutoff radius                                                       
   RWIGS  =    2.400; RWIGS  =    1.270    wigner-seitz radius (au A)                               
   ENMAX  =  293.235; ENMIN  =  219.927 eV                                                          
   ICORE  =        3    local potential                                                             
   LCOR   =        T    correct aug charges                                                         
   LPAW   =        T    paw PP                                                                      
   EAUG   =  455.659                                                                                
   DEXC   =    0.000                                                                                
   RMAX   =    2.456    core radius for proj-oper                                                   
   RAUG   =    1.300    factor for augmentation sphere                                              
   RDEP   =    2.451    radius for radial grids                                                     
   RDEPT  =    1.956    core radius for aug-charge                                                  
                                                                                                    
   Atomic configuration                                                                             
   11 entries                                                                                       
     n  l   j            E        occ.                                                              
     1  0  0.50    -18805.2457   2.0000                                                             
     2  0  0.50     -2630.2869   2.0000                                                             
     2  1  1.50     -2348.4046   6.0000                                                             
     3  0  0.50      -438.8757   2.0000                                                             
     3  1  1.50      -346.7588   6.0000                                                             
     3  2  2.50      -196.2560  10.0000                                                             
     4  0  0.50       -58.3859   2.0000                                                             
     5  0  0.50        -3.9816   1.0000                                                             
     4  1  1.50       -34.5141   6.0000                                                             
     4  2  2.50        -3.0408   4.0000                                                             
     4  3  2.50        -1.3606   0.0000                                                             
   Description                                                                                      
     l       E           TYP  RCUT    TYP  RCUT                                                     
     0    -58.3859094     23  2.200                                                                 
     0     -3.9816262     23  2.200                                                                 
     1    -34.5140738     23  2.200                                                                 
     1     13.6058260     23  2.200                                                                 
     2     -3.0408010     23  2.200                                                                 
     2     -0.1283038     23  2.200                                                                 
     3     -1.3605826     23  2.400                                                                 
  local pseudopotential read in
  partial core-charges read in
  partial kinetic energy density read in
  atomic valenz-charges read in
  non local Contribution for L=           0  read in
    real space projection operators read in
  non local Contribution for L=           0  read in
    real space projection operators read in
  non local Contribution for L=           1  read in
    real space projection operators read in
  non local Contribution for L=           1  read in
    real space projection operators read in
  non local Contribution for L=           2  read in
    real space projection operators read in
  non local Contribution for L=           2  read in
    real space projection operators read in
    PAW grid and wavefunctions read in
 
   number of l-projection  operators is LMAX  =           6
   number of lm-projection operators is LMMAX =          18
 
 POTCAR:    PAW_PBE Mo_sv 02Feb2006               
   SHA256 =  2731df97e41766cc617548c5a8267718fdef1f509ac6bafa01e745abea2bdfaa Mo_sv/POTCAR          
   COPYR  = (c) Copyright 02Feb2006 Georg Kresse                                                    
   COPYR  = This file is part of the software VASP. Any use, copying, and all other rights are regul
   COPYR  = If you do not have a valid VASP license, you may not use, copy or distribute this file. 
   VRHFIN =Mo: 4p5s4d                                                                               
   LEXCH  = PE                                                                                      
   EATOM  =  1862.2866 eV,  136.8742 Ry                                                             
                                                                                                    
   TITEL  = PAW_PBE Mo_sv 02Feb2006                                                                 
   LULTRA =        F    use ultrasoft PP ?                                                          
   IUNSCR =        1    unscreen: 0-lin 1-nonlin 2-no                                               
   RPACOR =    2.200    partial core radius                                                         
   POMASS =   95.940; ZVAL   =   14.000    mass and valenz                                          
   RCORE  =    2.500    outmost cutoff radius                                                       
   RWIGS  =    2.750; RWIGS  =    1.455    wigner-seitz radius (au A)                               
   ENMAX  =  242.676; ENMIN  =  182.007 eV                                                          
   ICORE  =        3    local potential                                                             
   LCOR   =        T    correct aug charges                                                         
   LPAW   =        T    paw PP                                                                      
   EAUG   =  446.014                                                                                
   DEXC   =    0.000                                                                                
   RMAX   =    2.563    core radius for proj-oper                                                   
   RAUG   =    1.300    factor for augmentation sphere                                              
   RDEP   =    2.641    radius for radial grids                                                     
   RDEPT  =    2.031    core radius for aug-charge                                                  
                                                                                                    
   Atomic configuration                                                                             
   11 entries                                                                                       
     n  l   j            E        occ.                                                              
     1  0  0.50    -19819.0341   2.0000                                                             
     2  0  0.50     -2799.0127   2.0000                                                             
     2  1  1.50     -2502.0276   6.0000                                                             
     3  0  0.50      -476.4449   2.0000                                                             
     3  1  1.50      -379.1496   6.0000                                                             
     3  2  2.50      -220.9367  10.0000                                                             
     4  0  0.50       -64.3378   2.0000                                                             
     5  0  0.50        -4.0862   1.0000                                                             
     4  1  1.50       -38.4773   6.0000                                                             
     4  2  2.50        -3.7535   5.0000                                                             
     4  3  2.50        -1.3606   0.0000                                                             
   Description                                                                                      
     l       E           TYP  RCUT    TYP  RCUT                                                     
     0    -64.3377829     23  2.100                                                                 
     0     -4.0861640     23  2.400                                                                 
     1    -38.4772993     23  2.100                                                                 
     1     13.6058260     23  2.100                                                                 
     2     -3.7534941     23  2.400                                                                 
     2     -5.1140767     23  2.400                                                                 
     3     -4.0817478     23  2.500                                                                 
  local pseudopotential read in
  partial core-charges read in
  partial kinetic energy density read in
  atomic valenz-charges read in
  non local Contribution for L=           0  read in
    real space projection operators read in
  non local Contribution for L=           0  read in
    real space projection operators read in
  non local Contribution for L=           1  read in
    real space projection operators read in
  non local Contribution for L=           1  read in
    real space projection operators read in
  non local Contribution for L=           2  read in
    real space projection operators read in
  non local Contribution for L=           2  read in
    real space projection operators read in
    PAW grid and wavefunctions read in
 
   number of l-projection  operators is LMAX  =           6
   number of lm-projection operators is LMMAX =          18
 
 POTCAR:    PAW_PBE Ta_pv 07Sep2000               
   SHA256 =  00d0a14a36c127416459414afb8617d9754996fffa60a2465888e660b20a452f Ta_pv/POTCAR          
   COPYR  = (c) Copyright 07Sep2000 Georg Kresse                                                    
   COPYR  = This file is part of the software VASP. Any use, copying, and all other rights are regul
   COPYR  = If you do not have a valid VASP license, you may not use, copy or distribute this file. 
   VRHFIN =Ta:  5p6s5d                                                                              
   LEXCH  = PE                                                                                      
   EATOM  =  1047.1984 eV,   76.9669 Ry                                                             
                                                                                                    
   TITEL  = PAW_PBE Ta_pv 07Sep2000                                                                 
   LULTRA =        F    use ultrasoft PP ?                                                          
   IUNSCR =        1    unscreen: 0-lin 1-nonlin 2-no                                               
   RPACOR =    2.330    partial core radius                                                         
   POMASS =  180.948; ZVAL   =   11.000    mass and valenz                                          
   RCORE  =    2.500    outmost cutoff radius                                                       
   RWIGS  =    2.840; RWIGS  =    1.503    wigner-seitz radius (au A)                               
   ENMAX  =  223.667; ENMIN  =  167.750 eV                                                          
   RCLOC  =    2.205    cutoff for local pot                                                        
   LCOR   =        T    correct aug charges                                                         
   LPAW   =        T    paw PP                                                                      
   EAUG   =  377.421                                                                                
   DEXC   =    0.000                                                                                
   RMAX   =    2.551    core radius for proj-oper                                                   
   RAUG   =    1.300    factor for augmentation sphere                                              
   RDEP   =    2.526    radius for radial grids                                                     
   RDEPT  =    2.132    core radius for aug-charge                                                  
                                                                                                    
   Atomic configuration                                                                             
   15 entries                                                                                       
     n  l   j            E        occ.                                                              
     1  0  0.50    -67341.2801   2.0000                                                             
     2  0  0.50    -11566.9369   2.0000                                                             
     2  1  1.50    -10134.1175   6.0000                                                             
     3  0  0.50     -2648.5614   2.0000                                                             
     3  1  1.50     -2222.6006   6.0000                                                             
     3  2  2.50     -1726.3114  10.0000                                                             
     4  0  0.50      -538.6957   2.0000                                                             
     4  1  1.50      -399.0125   6.0000                                                             
     4  2  2.50      -220.3955  10.0000                                                             
     4  3  3.50       -23.0371  14.0000                                                             
     5  0  0.50       -71.2900   2.0000                                                             
     5  1  1.50       -37.8224   6.0000                                                             
     5  2  2.50        -2.6455   4.0000                                                             
     6  0  0.50        -4.9623   1.0000                                                             
     5  3  2.50        -1.3606   0.0000                                                             
   Description                                                                                      
     l       E           TYP  RCUT    TYP  RCUT                                                     
     1    -37.8224449     23  2.500                                                                 
     1      1.3605826     23  2.500                                                                 
     2     -2.6454718     23  2.500                                                                 
     2     -0.6258570     23  2.500                                                                 
     0     -4.9622674     23  2.500                                                                 
     0      4.7531427     23  2.500                                                                 
  local pseudopotential read in
  partial core-charges read in
  partial kinetic energy density read in
  atomic valenz-charges read in
  non local Contribution for L=           1  read in
    real space projection operators read in
  non local Contribution for L=           1  read in
    real space projection operators read in
  non local Contribution for L=           2  read in
    real space projection operators read in
  non local Contribution for L=           2  read in
    real space projection operators read in
  non local Contribution for L=           0  read in
    real space projection operators read in
  non local Contribution for L=           0  read in
    real space projection operators read in
    PAW grid and wavefunctions read in
 
   number of l-projection  operators is LMAX  =           6
   number of lm-projection operators is LMMAX =          18
 
 POTCAR:    PAW_PBE W_sv 04Sep2015                
   SHA256 =  931c2d770f65867ef30f3db3421922900fc0890ebac5c3e12f63b6a2064023d7 W_sv/POTCAR           
   COPYR  = (c) Copyright 04Sep2015 Georg Kresse                                                    
   COPYR  = This file is part of the software VASP. Any use, copying, and all other rights are regul
   COPYR  = If you do not have a valid VASP license, you may not use, copy or distribute this file. 
   VRHFIN =W : 5p6s5d                                                                               
   LEXCH  = PE                                                                                      
   EATOM  =  1865.5791 eV,  137.1162 Ry                                                             
                                                                                                    
   TITEL  = PAW_PBE W_sv 04Sep2015                                                                  
   LULTRA =        F    use ultrasoft PP ?                                                          
   IUNSCR =        1    unscreen: 0-lin 1-nonlin 2-no                                               
   RPACOR =    2.330    partial core radius                                                         
   POMASS =  183.850; ZVAL   =   14.000    mass and valenz                                          
   RCORE  =    2.500    outmost cutoff radius                                                       
   RWIGS  =    2.750; RWIGS  =    1.455    wigner-seitz radius (au A)                               
   ENMAX  =  223.057; ENMIN  =  167.293 eV                                                          
   ICORE  =        3    local potential                                                             
   LCOR   =        T    correct aug charges                                                         
   LPAW   =        T    paw PP                                                                      
   EAUG   =  373.438                                                                                
   DEXC   =    0.000                                                                                
   RMAX   =    2.565    core radius for proj-oper                                                   
   RAUG   =    1.300    factor for augmentation sphere                                              
   RDEP   =    2.539    radius for radial grids                                                     
   RDEPT  =    2.126    core radius for aug-charge                                                  
                                                                                                    
   Atomic configuration                                                                             
   15 entries                                                                                       
     n  l   j            E        occ.                                                              
     1  0  0.50    -69465.5834   2.0000                                                             
     2  0  0.50    -11986.2640   2.0000                                                             
     2  1  1.50    -10479.8613   6.0000                                                             
     3  0  0.50     -2759.0756   2.0000                                                             
     3  1  1.50     -2313.1855   6.0000                                                             
     3  2  2.50     -1801.1183  10.0000                                                             
     4  0  0.50      -567.6789   2.0000                                                             
     4  1  1.50      -421.4692   6.0000                                                             
     4  2  2.50      -236.3471  10.0000                                                             
     4  3  3.50       -31.2665  14.0000                                                             
     5  0  0.50       -77.1084   2.0000                                                             
     6  0  0.50        -5.1438   1.0000                                                             
     5  1  1.50       -41.3856   6.0000                                                             
     5  2  2.50        -3.3185   5.0000                                                             
     5  3  2.50        -1.3606   0.0000                                                             
   Description                                                                                      
     l       E           TYP  RCUT    TYP  RCUT                                                     
     0    -77.1084470     23  2.100                                                                 
     0     -5.1437956     23  2.300                                                                 
     1    -41.3855615     23  2.500                                                                 
     1     -2.7211652     23  2.500                                                                 
     2     -3.3185025     23  2.500                                                                 
     2     -1.5965151     23  2.500                                                                 
     3     -1.3605826     23  2.500                                                                 
  local pseudopotential read in
  partial core-charges read in
  partial kinetic energy density read in
  kinetic energy density of atom read in
  atomic valenz-charges read in
  non local Contribution for L=           0  read in
    real space projection operators read in
  non local Contribution for L=           0  read in
    real space projection operators read in
  non local Contribution for L=           1  read in
    real space projection operators read in
  non local Contribution for L=           1  read in
    real space projection operators read in
  non local Contribution for L=           2  read in
    real space projection operators read in
  non local Contribution for L=           2  read in
    real space projection operators read in
    PAW grid and wavefunctions read in
 
   number of l-projection  operators is LMAX  =           6
   number of lm-projection operators is LMMAX =          18
 
  PAW_PBE Nb_sv 25May2007               :
 energy of atom  1       EATOM=-1555.1913
 kinetic energy error for atom=    0.2155 (will be added to EATOM!!)
  PAW_PBE Mo_sv 02Feb2006               :
 energy of atom  2       EATOM=-1862.2866
 kinetic energy error for atom=    0.1102 (will be added to EATOM!!)
  PAW_PBE Ta_pv 07Sep2000               :
 energy of atom  3       EATOM=-1047.1984
 kinetic energy error for atom=    0.0394 (will be added to EATOM!!)
  PAW_PBE W_sv 04Sep2015                :
 energy of atom  4       EATOM=-1865.5791
 kinetic energy error for atom=    0.0589 (will be added to EATOM!!)
 
 
 POSCAR: Nb-Mo-Ta-W alloy
  positions in direct lattice
  No initial velocities read in
 exchange correlation table for  LEXCH =        8
   RHO(1)=    0.500       N(1)  =     2000
   RHO(2)=  100.500       N(2)  =     4000
 


--------------------------------------------------------------------------------------------------------


 ion  position               nearest neighbor table
   1  0.500  0.500  0.500-   4 2.85   8 2.85   9 2.85  10 2.85  12 2.85  13 2.85  14 2.85  16 2.85
                            11 3.29  11 3.29
   2  0.500  0.500  0.000-   4 2.85   8 2.85   9 2.85  10 2.85  12 2.85  13 2.85  14 2.85  16 2.85

   3  0.000  0.000  0.000-   4 2.85   8 2.85   9 2.85  10 2.85  12 2.85  13 2.85  14 2.85  16 2.85

   4  0.750  0.250  0.750-   1 2.85   2 2.85   3 2.85   5 2.85   6 2.85   7 2.85  11 2.85  15 2.85
                            14 3.29  14 3.29
   5  0.000  0.000  0.500-   4 2.85   8 2.85   9 2.85  10 2.85  12 2.85  13 2.85  14 2.85  16 2.85
                            11 3.29  11 3.29
   6  0.000  0.500  0.000-   4 2.85   8 2.85   9 2.85  10 2.85  12 2.85  13 2.85  14 2.85  16 2.85
                            11 3.29  11 3.29
   7  0.500  0.000  0.000-   4 2.85   8 2.85   9 2.85  10 2.85  12 2.85  13 2.85  14 2.85  16 2.85
                            15 3.29  15 3.29
   8  0.750  0.750  0.750-   1 2.85   2 2.85   3 2.85   5 2.85   6 2.85   7 2.85  11 2.85  15 2.85
                            12 3.29  16 3.29  16 3.29  12 3.29
   9  0.250  0.250  0.750-   1 2.85   2 2.85   3 2.85   5 2.85   6 2.85   7 2.85  11 2.85  15 2.85
                            13 3.29  12 3.29  13 3.29  12 3.29
  10  0.250  0.750  0.250-   1 2.85   2 2.85   3 2.85   5 2.85   6 2.85   7 2.85  11 2.85  15 2.85
                            13 3.29  12 3.29  16 3.29  12 3.29  13 3.29  16 3.29
  11  0.000  0.500  0.500-   4 2.85   8 2.85   9 2.85  10 2.85  12 2.85  13 2.85  14 2.85  16 2.85
                             5 3.29   6 3.29   1 3.29   6 3.29   5 3.29   1 3.29
  12  0.250  0.750  0.750-   1 2.85   2 2.85   3 2.85   5 2.85   6 2.85   7 2.85  11 2.85  15 2.85
                            10 3.29   8 3.29   9 3.29  10 3.29   9 3.29   8 3.29
  13  0.250  0.250  0.250-   1 2.85   2 2.85   3 2.85   5 2.85   6 2.85   7 2.85  11 2.85  15 2.85
                             9 3.29  14 3.29  10 3.29   9 3.29  10 3.29  14 3.29
  14  0.750  0.250  0.250-   1 2.85   2 2.85   3 2.85   5 2.85   6 2.85   7 2.85  11 2.85  15 2.85
                            13 3.29   4 3.29  16 3.29   4 3.29  16 3.29  13 3.29
  15  0.500  0.000  0.500-   4 2.85   8 2.85   9 2.85  10 2.85  12 2.85  13 2.85  14 2.85  16 2.85
                             7 3.29   7 3.29
  16  0.750  0.750  0.250-   1 2.85   2 2.85   3 2.85   5 2.85   6 2.85   7 2.85  11 2.85  15 2.85
                             8 3.29  14 3.29  10 3.29   8 3.29  14 3.29  10 3.29
 
  LATTYP: Found a simple cubic cell.
 ALAT       =     6.5800000000
  
  Lattice vectors:
  
 A1 = (   6.5800000000,   0.0000000000,   0.0000000000)
 A2 = (   0.0000000000,   6.5800000000,   0.0000000000)
 A3 = (   0.0000000000,   0.0000000000,   6.5800000000)


Analysis of symmetry for initial positions (statically):
=====================================================================
 Subroutine PRICEL returns:
 Original cell was already a primitive cell.
 

 Routine SETGRP: Setting up the symmetry group for a 
 simple cubic supercell.


 Subroutine GETGRP returns: Found  1 space group operations
 (whereof  1 operations were pure point group operations)
 out of a pool of 48 trial point group operations.


The static configuration has the point symmetry C_1 .


Analysis of symmetry for dynamics (positions and initial velocities):
=====================================================================
 Subroutine PRICEL returns:
 Original cell was already a primitive cell.
 

 Routine SETGRP: Setting up the symmetry group for a 
 simple cubic supercell.


 Subroutine GETGRP returns: Found  1 space group operations
 (whereof  1 operations were pure point group operations)
 out of a pool of 48 trial point group operations.


The dynamic configuration has the point symmetry C_1 .


 Subroutine INISYM returns: Found  1 space group operations
 (whereof  1 operations are pure point group operations),
 and found     1 'primitive' translations


----------------------------------------------------------------------------------------

                                     Primitive cell                                     

  volume of cell :     284.8903

  direct lattice vectors                    reciprocal lattice vectors
     6.580000000  0.000000000  0.000000000     0.151975684  0.000000000  0.000000000
     0.000000000  6.580000000  0.000000000     0.000000000  0.151975684  0.000000000
     0.000000000  0.000000000  6.580000000     0.000000000  0.000000000  0.151975684

  length of vectors
     6.580000000  6.580000000  6.580000000     0.151975684  0.151975684  0.151975684

  position of ions in fractional coordinates (direct lattice)
     0.500000000  0.500000000  0.500000000
     0.500000000  0.500000000  0.000000000
     0.000000000  0.000000000  0.000000000
     0.750000000  0.250000000  0.750000000
     0.000000000  0.000000000  0.500000000
     0.000000000  0.500000000  0.000000000
     0.500000000  0.000000000  0.000000000
     0.750000000  0.750000000  0.750000000
     0.250000000  0.250000000  0.750000000
     0.250000000  0.750000000  0.250000000
     0.000000000  0.500000000  0.500000000
     0.250000000  0.750000000  0.750000000
     0.250000000  0.250000000  0.250000000
     0.750000000  0.250000000  0.250000000
     0.500000000  0.000000000  0.500000000
     0.750000000  0.750000000  0.250000000

  ion indices of the primitive-cell ions
   primitive index   ion index
                 1           1
                 2           2
                 3           3
                 4           4
                 5           5
                 6           6
                 7           7
                 8           8
                 9           9
                10          10
                11          11
                12          12
                13          13
                14          14
                15          15
                16          16

----------------------------------------------------------------------------------------

 
 
 KPOINTS: K-Spacing Value to Generate K-Mesh: 0.03

Automatic generation of k-mesh.
 Grid dimensions read from file:
 generate k-points for:    5    5    5

 Generating k-lattice:

  Cartesian coordinates                     Fractional coordinates (reciprocal lattice)
     0.030395137  0.000000000  0.000000000     0.200000000  0.000000000  0.000000000
     0.000000000  0.030395137  0.000000000     0.000000000  0.200000000  0.000000000
     0.000000000  0.000000000  0.030395137     0.000000000  0.000000000  0.200000000

  Length of vectors
     0.030395137  0.030395137  0.030395137

  Shift w.r.t. Gamma in fractional coordinates (k-lattice)
     0.000000000  0.000000000  0.000000000

 
 Subroutine IBZKPT returns following result:
 ===========================================
 
 Found     63 irreducible k-points:
 
 Following reciprocal coordinates:
            Coordinates               Weight
  0.000000  0.000000  0.000000      1.000000
  0.200000  0.000000  0.000000      2.000000
  0.000000  0.200000  0.000000      2.000000
  0.000000  0.000000  0.200000      2.000000
  0.400000  0.000000  0.000000      2.000000
  0.000000  0.400000  0.000000      2.000000
  0.000000  0.000000  0.400000      2.000000
  0.200000  0.200000  0.000000      2.000000
  0.000000  0.200000  0.200000      2.000000
  0.200000  0.000000  0.200000      2.000000
 -0.200000  0.200000  0.000000      2.000000
 -0.200000  0.000000  0.200000      2.000000
  0.000000 -0.200000  0.200000      2.000000
  0.400000  0.200000  0.000000      2.000000
  0.000000  0.400000  0.200000      2.000000
  0.200000  0.000000  0.400000      2.000000
 -0.200000  0.400000  0.000000      2.000000
 -0.400000  0.000000  0.200000      2.000000
  0.000000  0.200000  0.400000      2.000000
  0.000000 -0.400000  0.200000      2.000000
 -0.200000  0.000000  0.400000      2.000000
  0.400000  0.000000  0.200000      2.000000
  0.000000 -0.200000  0.400000      2.000000
  0.400000 -0.200000  0.000000      2.000000
  0.200000  0.400000  0.000000      2.000000
  0.400000  0.400000  0.000000      2.000000
  0.000000  0.400000  0.400000      2.000000
  0.400000  0.000000  0.400000      2.000000
 -0.400000  0.400000  0.000000      2.000000
 -0.400000  0.000000  0.400000      2.000000
  0.000000 -0.400000  0.400000      2.000000
  0.200000  0.200000  0.200000      2.000000
 -0.200000  0.200000  0.200000      2.000000
 -0.200000 -0.200000  0.200000      2.000000
  0.200000 -0.200000  0.200000      2.000000
  0.400000  0.200000  0.200000      2.000000
  0.200000  0.400000  0.200000      2.000000
  0.200000  0.200000  0.400000      2.000000
 -0.200000  0.400000  0.200000      2.000000
 -0.400000  0.200000  0.200000      2.000000
 -0.200000  0.200000  0.400000      2.000000
 -0.400000 -0.200000  0.200000      2.000000
 -0.200000 -0.400000  0.200000      2.000000
 -0.200000 -0.200000  0.400000      2.000000
  0.200000 -0.400000  0.200000      2.000000
  0.400000 -0.200000  0.200000      2.000000
  0.200000 -0.200000  0.400000      2.000000
  0.400000  0.400000  0.200000      2.000000
  0.200000  0.400000  0.400000      2.000000
  0.400000  0.200000  0.400000      2.000000
 -0.400000  0.400000  0.200000      2.000000
 -0.400000  0.200000  0.400000      2.000000
 -0.200000  0.400000  0.400000      2.000000
 -0.400000 -0.400000  0.200000      2.000000
 -0.200000 -0.400000  0.400000      2.000000
 -0.400000 -0.200000  0.400000      2.000000
  0.400000 -0.400000  0.200000      2.000000
  0.400000 -0.200000  0.400000      2.000000
  0.200000 -0.400000  0.400000      2.000000
  0.400000  0.400000  0.400000      2.000000
 -0.400000  0.400000  0.400000      2.000000
 -0.400000 -0.400000  0.400000      2.000000
  0.400000 -0.400000  0.400000      2.000000
 
 Following cartesian coordinates:
            Coordinates               Weight
  0.000000  0.000000  0.000000      1.000000
  0.030395  0.000000  0.000000      2.000000
  0.000000  0.030395  0.000000      2.000000
  0.000000  0.000000  0.030395      2.000000
  0.060790  0.000000  0.000000      2.000000
  0.000000  0.060790  0.000000      2.000000
  0.000000  0.000000  0.060790      2.000000
  0.030395  0.030395  0.000000      2.000000
  0.000000  0.030395  0.030395      2.000000
  0.030395  0.000000  0.030395      2.000000
 -0.030395  0.030395  0.000000      2.000000
 -0.030395  0.000000  0.030395      2.000000
  0.000000 -0.030395  0.030395      2.000000
  0.060790  0.030395  0.000000      2.000000
  0.000000  0.060790  0.030395      2.000000
  0.030395  0.000000  0.060790      2.000000
 -0.030395  0.060790  0.000000      2.000000
 -0.060790  0.000000  0.030395      2.000000
  0.000000  0.030395  0.060790      2.000000
  0.000000 -0.060790  0.030395      2.000000
 -0.030395  0.000000  0.060790      2.000000
  0.060790  0.000000  0.030395      2.000000
  0.000000 -0.030395  0.060790      2.000000
  0.060790 -0.030395  0.000000      2.000000
  0.030395  0.060790  0.000000      2.000000
  0.060790  0.060790  0.000000      2.000000
  0.000000  0.060790  0.060790      2.000000
  0.060790  0.000000  0.060790      2.000000
 -0.060790  0.060790  0.000000      2.000000
 -0.060790  0.000000  0.060790      2.000000
  0.000000 -0.060790  0.060790      2.000000
  0.030395  0.030395  0.030395      2.000000
 -0.030395  0.030395  0.030395      2.000000
 -0.030395 -0.030395  0.030395      2.000000
  0.030395 -0.030395  0.030395      2.000000
  0.060790  0.030395  0.030395      2.000000
  0.030395  0.060790  0.030395      2.000000
  0.030395  0.030395  0.060790      2.000000
 -0.030395  0.060790  0.030395      2.000000
 -0.060790  0.030395  0.030395      2.000000
 -0.030395  0.030395  0.060790      2.000000
 -0.060790 -0.030395  0.030395      2.000000
 -0.030395 -0.060790  0.030395      2.000000
 -0.030395 -0.030395  0.060790      2.000000
  0.030395 -0.060790  0.030395      2.000000
  0.060790 -0.030395  0.030395      2.000000
  0.030395 -0.030395  0.060790      2.000000
  0.060790  0.060790  0.030395      2.000000
  0.030395  0.060790  0.060790      2.000000
  0.060790  0.030395  0.060790      2.000000
 -0.060790  0.060790  0.030395      2.000000
 -0.060790  0.030395  0.060790      2.000000
 -0.030395  0.060790  0.060790      2.000000
 -0.060790 -0.060790  0.030395      2.000000
 -0.030395 -0.060790  0.060790      2.000000
 -0.060790 -0.030395  0.060790      2.000000
  0.060790 -0.060790  0.030395      2.000000
  0.060790 -0.030395  0.060790      2.000000
  0.030395 -0.060790  0.060790      2.000000
  0.060790  0.060790  0.060790      2.000000
 -0.060790  0.060790  0.060790      2.000000
 -0.060790 -0.060790  0.060790      2.000000
  0.060790 -0.060790  0.060790      2.000000
 


--------------------------------------------------------------------------------------------------------




 Dimension of arrays:
   k-points           NKPTS =     63   k-points in BZ     NKDIM =     63   number of bands    NBANDS=    124
   number of dos      NEDOS =    301   number of ions     NIONS =     16
   non local maximal  LDIM  =      6   non local SUM 2l+1 LMDIM =     18
   total plane-waves  NPLWV =  46656
   max r-space proj   IRMAX =      1   max aug-charges    IRDMAX=   9546
   dimension x,y,z NGX =    36 NGY =   36 NGZ =   36
   dimension x,y,z NGXF=    72 NGYF=   72 NGZF=   72
   support grid    NGXF=    72 NGYF=   72 NGZF=   72
   ions per type =               6   3   5   2
   NGX,Y,Z   is equivalent  to a cutoff of   9.10,  9.10,  9.10 a.u.
   NGXF,Y,Z  is equivalent  to a cutoff of  18.19, 18.19, 18.19 a.u.

 SYSTEM =  unknown system                          
 POSCAR =  Nb-Mo-Ta-W alloy                        

 Startparameter for this run:
   NWRITE =      2    write-flag & timer
   PREC   = accura    normal or accurate (medium, high low for compatibility)
   ISTART =      0    job   : 0-new  1-cont  2-samecut
   ICHARG =      2    charge: 1-file 2-atom 10-const
   ISPIN  =      1    spin polarized calculation?
   LNONCOLLINEAR =      F non collinear calculations
   LSORBIT =      F    spin-orbit coupling
   INIWAV =      1    electr: 0-lowe 1-rand  2-diag
   LASPH  =      F    aspherical Exc in radial PAW
 Electronic Relaxation 1
   ENCUT  =  250.0 eV  18.37 Ry    4.29 a.u.   8.48  8.48  8.48*2*pi/ulx,y,z
   ENINI  =  250.0     initial cutoff
   ENAUG  =  455.7 eV  augmentation charge cutoff
   NELM   =     80;   NELMIN=  2; NELMDL= -5     # of ELM steps 
   EDIFF  = 0.1E-07   stopping-criterion for ELM
   LREAL  =      F    real-space projection
   NLSPLINE    = F    spline interpolate recip. space projectors
   LCOMPAT=      F    compatible to vasp.4.4
   GGA_COMPAT  = T    GGA compatible to vasp.4.4-vasp.4.6
   LMAXPAW     = -100 max onsite density
   LMAXMIX     =    2 max onsite mixed and CHGCAR
   VOSKOWN=      0    Vosko Wilk Nusair interpolation
   ROPT   =    0.00000   0.00000   0.00000   0.00000
 Ionic relaxation
   EDIFFG = -.1E-01   stopping-criterion for IOM
   NSW    =      0    number of steps for IOM
   NBLOCK =      1;   KBLOCK =      1    inner block; outer block 
   IBRION =     -1    ionic relax: 0-MD 1-quasi-New 2-CG
   NFREE  =      0    steps in history (QN), initial steepest desc. (CG)
   ISIF   =      2    stress and relaxation
   IWAVPR =     10    prediction:  0-non 1-charg 2-wave 3-comb
   ISYM   =      2    0-nonsym 1-usesym 2-fastsym
   LCORR  =      T    Harris-Foulkes like correction to forces

   POTIM  = 0.5000    time-step for ionic-motion
   TEIN   =    0.0    initial temperature
   TEBEG  =    0.0;   TEEND  =   0.0 temperature during run
   SMASS  =  -3.00    Nose mass-parameter (am)
   estimated Nose-frequenzy (Omega)   =  0.10E-29 period in steps = 0.13E+47 mass=  -0.989E-27a.u.
   SCALEE = 1.0000    scale energy and forces
   NPACO  =    256;   APACO  = 10.0  distance and # of slots for P.C.
   PSTRESS=    0.0 pullay stress

  Mass of Ions in am
   POMASS =  92.91 95.94180.95183.85
  Ionic Valenz
   ZVAL   =  13.00 14.00 11.00 14.00
  Atomic Wigner-Seitz radii
   RWIGS  =  -1.00 -1.00 -1.00 -1.00
  virtual crystal weights 
   VCA    =   1.00  1.00  1.00  1.00
   NELECT =     203.0000    total number of electrons
   NUPDOWN=      -1.0000    fix difference up-down

 DOS related values:
   EMIN   =  10.00;   EMAX   =-10.00  energy-range for DOS
   EFERMI =   0.00
   ISMEAR =     0;   SIGMA  =   0.02  broadening in eV -4-tet -1-fermi 0-gaus

 Electronic relaxation 2 (details)
   IALGO  =     38    algorithm
   LDIAG  =      T    sub-space diagonalisation (order eigenvalues)
   LSUBROT=      F    optimize rotation matrix (better conditioning)
   TURBO    =      0    0=normal 1=particle mesh
   IRESTART =      0    0=no restart 2=restart with 2 vectors
   NREBOOT  =      0    no. of reboots
   NMIN     =      0    reboot dimension
   EREF     =   0.00    reference energy to select bands
   IMIX   =      4    mixing-type and parameters
     AMIX     =   0.40;   BMIX     =  1.00
     AMIX_MAG =   1.60;   BMIX_MAG =  1.00
     AMIN     =   0.10
     WC   =   100.;   INIMIX=   1;  MIXPRE=   1;  MAXMIX= -45

 Intra band minimization:
   WEIMIN = 0.0000     energy-eigenvalue tresh-hold
   EBREAK =  0.20E-10  absolut break condition
   DEPER  =   0.30     relativ break condition  

   TIME   =   0.40     timestep for ELM

  volume/ion in A,a.u.               =      17.81       120.16
  Fermi-wavevector in a.u.,A,eV,Ry     =   1.462225  2.763205 29.090654  2.138103
  Thomas-Fermi vector in A             =   2.578464
 
 Write flags
   LWAVE        =      F    write WAVECAR
   LDOWNSAMPLE  =      F    k-point downsampling of WAVECAR
   LCHARG       =      F    write CHGCAR
   LVTOT        =      F    write LOCPOT, total local potential
   LVHAR        =      F    write LOCPOT, Hartree potential only
   LELF         =      F    write electronic localiz. function (ELF)
   LORBIT       =      0    0 simple, 1 ext, 2 COOP (PROOUT), +10 PAW based schemes


 Dipole corrections
   LMONO  =      F    monopole corrections only (constant potential shift)
   LDIPOL =      F    correct potential (dipole corrections)
   IDIPOL =      0    1-x, 2-y, 3-z, 4-all directions 
   EPSILON=  1.0000000 bulk dielectric constant

 Core level calculations are selected ICORELEVEL =  1
 Exchange correlation treatment:
   GGA     =    PE    GGA type
   LEXCH   =     8    internal setting for exchange type
   LIBXC   =     F    Libxc                    
   VOSKOWN =     0    Vosko Wilk Nusair interpolation
   LHFCALC =     F    Hartree Fock is set to
   LHFONE  =     F    Hartree Fock one center treatment
   AEXX    =    0.0000 exact exchange contribution

 Linear response parameters
   LEPSILON=     F    determine dielectric tensor
   LRPA    =     F    only Hartree local field effects (RPA)
   LNABLA  =     F    use nabla operator in PAW spheres
   LVEL    =     F    velocity operator in full k-point grid
   CSHIFT  =0.1000    complex shift for real part using Kramers Kronig
   OMEGAMAX=  -1.0    maximum frequency
   DEG_THRESHOLD= 0.2000000E-02 threshold for treating states as degnerate
   RTIME   =   -0.100 relaxation time in fs
  (WPLASMAI=    0.000 imaginary part of plasma frequency in eV, 0.658/RTIME)
   DFIELD  = 0.0000000 0.0000000 0.0000000 field for delta impulse in time
 
  Optional k-point grid parameters
   LKPOINTS_OPT  =     F    use optional k-point grid
   KPOINTS_OPT_MODE=     1    mode for optional k-point grid
 
 Orbital magnetization related:
   ORBITALMAG=     F  switch on orbital magnetization
   LCHIMAG   =     F  perturbation theory with respect to B field
   DQ        =  0.001000  dq finite difference perturbation B field
   LLRAUG    =     F  two centre corrections for induced B field



--------------------------------------------------------------------------------------------------------


 Static calculation
 charge density and potential will be updated during run
 non-spin polarized calculation
 Variant of blocked Davidson
 Davidson routine will perform the subspace rotation
 perform sub-space diagonalisation
    after iterative eigenvector-optimisation
 modified Broyden-mixing scheme, WC =      100.0
 initial mixing is a Kerker type mixing with AMIX =  0.4000 and BMIX =      1.0000
 Hartree-type preconditioning will be used
 using additional bands           22
 reciprocal scheme for non local part
 use partial core corrections
 calculate Harris-corrections to forces 
   (improved forces if not selfconsistent)
 use gradient corrections 
 use of overlap-Matrix (Vanderbilt PP)
 Gauss-broadening in eV      SIGMA  =   0.02


--------------------------------------------------------------------------------------------------------


  energy-cutoff  :      250.00
  volume of cell :      284.89
      direct lattice vectors                 reciprocal lattice vectors
     6.580000000  0.000000000  0.000000000     0.151975684  0.000000000  0.000000000
     0.000000000  6.580000000  0.000000000     0.000000000  0.151975684  0.000000000
     0.000000000  0.000000000  6.580000000     0.000000000  0.000000000  0.151975684

  length of vectors
     6.580000000  6.580000000  6.580000000     0.151975684  0.151975684  0.151975684


 
 k-points in units of 2pi/SCALE and weight: K-Spacing Value to Generate K-Mesh: 0.03
   0.00000000  0.00000000  0.00000000       0.008
   0.03039514  0.00000000  0.00000000       0.016
   0.00000000  0.03039514  0.00000000       0.016
   0.00000000  0.00000000  0.03039514       0.016
   0.06079027  0.00000000  0.00000000       0.016
   0.00000000  0.06079027  0.00000000       0.016
   0.00000000  0.00000000  0.06079027       0.016
   0.03039514  0.03039514  0.00000000       0.016
   0.00000000  0.03039514  0.03039514       0.016
   0.03039514  0.00000000  0.03039514       0.016
  -0.03039514  0.03039514  0.00000000       0.016
  -0.03039514  0.00000000  0.03039514       0.016
   0.00000000 -0.03039514  0.03039514       0.016
   0.06079027  0.03039514  0.00000000       0.016
   0.00000000  0.06079027  0.03039514       0.016
   0.03039514  0.00000000  0.06079027       0.016
  -0.03039514  0.06079027  0.00000000       0.016
  -0.06079027  0.00000000  0.03039514       0.016
   0.00000000  0.03039514  0.06079027       0.016
   0.00000000 -0.06079027  0.03039514       0.016
  -0.03039514  0.00000000  0.06079027       0.016
   0.06079027  0.00000000  0.03039514       0.016
   0.00000000 -0.03039514  0.06079027       0.016
   0.06079027 -0.03039514  0.00000000       0.016
   0.03039514  0.06079027  0.00000000       0.016
   0.06079027  0.06079027  0.00000000       0.016
   0.00000000  0.06079027  0.06079027       0.016
   0.06079027  0.00000000  0.06079027       0.016
  -0.06079027  0.06079027  0.00000000       0.016
  -0.06079027  0.00000000  0.06079027       0.016
   0.00000000 -0.06079027  0.06079027       0.016
   0.03039514  0.03039514  0.03039514       0.016
  -0.03039514  0.03039514  0.03039514       0.016
  -0.03039514 -0.03039514  0.03039514       0.016
   0.03039514 -0.03039514  0.03039514       0.016
   0.06079027  0.03039514  0.03039514       0.016
   0.03039514  0.06079027  0.03039514       0.016
   0.03039514  0.03039514  0.06079027       0.016
  -0.03039514  0.06079027  0.03039514       0.016
  -0.06079027  0.03039514  0.03039514       0.016
  -0.03039514  0.03039514  0.06079027       0.016
  -0.06079027 -0.03039514  0.03039514       0.016
  -0.03039514 -0.06079027  0.03039514       0.016
  -0.03039514 -0.03039514  0.06079027       0.016
   0.03039514 -0.06079027  0.03039514       0.016
   0.06079027 -0.03039514  0.03039514       0.016
   0.03039514 -0.03039514  0.06079027       0.016
   0.06079027  0.06079027  0.03039514       0.016
   0.03039514  0.06079027  0.06079027       0.016
   0.06079027  0.03039514  0.06079027       0.016
  -0.06079027  0.06079027  0.03039514       0.016
  -0.06079027  0.03039514  0.06079027       0.016
  -0.03039514  0.06079027  0.06079027       0.016
  -0.06079027 -0.06079027  0.03039514       0.016
  -0.03039514 -0.06079027  0.06079027       0.016
  -0.06079027 -0.03039514  0.06079027       0.016
   0.06079027 -0.06079027  0.03039514       0.016
   0.06079027 -0.03039514  0.06079027       0.016
   0.03039514 -0.06079027  0.06079027       0.016
   0.06079027  0.06079027  0.06079027       0.016
  -0.06079027  0.06079027  0.06079027       0.016
  -0.06079027 -0.06079027  0.06079027       0.016
   0.06079027 -0.06079027  0.06079027       0.016
 
 k-points in reciprocal lattice and weights: K-Spacing Value to Generate K-Mesh: 0.03
   0.00000000  0.00000000  0.00000000       0.008
   0.20000000  0.00000000  0.00000000       0.016
   0.00000000  0.20000000  0.00000000       0.016
   0.00000000  0.00000000  0.20000000       0.016
   0.40000000  0.00000000  0.00000000       0.016
   0.00000000  0.40000000  0.00000000       0.016
   0.00000000  0.00000000  0.40000000       0.016
   0.20000000  0.20000000  0.00000000       0.016
   0.00000000  0.20000000  0.20000000       0.016
   0.20000000  0.00000000  0.20000000       0.016
  -0.20000000  0.20000000  0.00000000       0.016
  -0.20000000  0.00000000  0.20000000       0.016
   0.00000000 -0.20000000  0.20000000       0.016
   0.40000000  0.20000000  0.00000000       0.016
   0.00000000  0.40000000  0.20000000       0.016
   0.20000000  0.00000000  0.40000000       0.016
  -0.20000000  0.40000000  0.00000000       0.016
  -0.40000000  0.00000000  0.20000000       0.016
   0.00000000  0.20000000  0.40000000       0.016
   0.00000000 -0.40000000  0.20000000       0.016
  -0.20000000  0.00000000  0.40000000       0.016
   0.40000000  0.00000000  0.20000000       0.016
   0.00000000 -0.20000000  0.40000000       0.016
   0.40000000 -0.20000000  0.00000000       0.016
   0.20000000  0.40000000  0.00000000       0.016
   0.40000000  0.40000000  0.00000000       0.016
   0.00000000  0.40000000  0.40000000       0.016
   0.40000000  0.00000000  0.40000000       0.016
  -0.40000000  0.40000000  0.00000000       0.016
  -0.40000000  0.00000000  0.40000000       0.016
   0.00000000 -0.40000000  0.40000000       0.016
   0.20000000  0.20000000  0.20000000       0.016
  -0.20000000  0.20000000  0.20000000       0.016
  -0.20000000 -0.20000000  0.20000000       0.016
   0.20000000 -0.20000000  0.20000000       0.016
   0.40000000  0.20000000  0.20000000       0.016
   0.20000000  0.40000000  0.20000000       0.016
   0.20000000  0.20000000  0.40000000       0.016
  -0.20000000  0.40000000  0.20000000       0.016
  -0.40000000  0.20000000  0.20000000       0.016
  -0.20000000  0.20000000  0.40000000       0.016
  -0.40000000 -0.20000000  0.20000000       0.016
  -0.20000000 -0.40000000  0.20000000       0.016
  -0.20000000 -0.20000000  0.40000000       0.016
   0.20000000 -0.40000000  0.20000000       0.016
   0.40000000 -0.20000000  0.20000000       0.016
   0.20000000 -0.20000000  0.40000000       0.016
   0.40000000  0.40000000  0.20000000       0.016
   0.20000000  0.40000000  0.40000000       0.016
   0.40000000  0.20000000  0.40000000       0.016
  -0.40000000  0.40000000  0.20000000       0.016
  -0.40000000  0.20000000  0.40000000       0.016
  -0.20000000  0.40000000  0.40000000       0.016
  -0.40000000 -0.40000000  0.20000000       0.016
  -0.20000000 -0.40000000  0.40000000       0.016
  -0.40000000 -0.20000000  0.40000000       0.016
   0.40000000 -0.40000000  0.20000000       0.016
   0.40000000 -0.20000000  0.40000000       0.016
   0.20000000 -0.40000000  0.40000000       0.016
   0.40000000  0.40000000  0.40000000       0.016
  -0.40000000  0.40000000  0.40000000       0.016
  -0.40000000 -0.40000000  0.40000000       0.016
   0.40000000 -0.40000000  0.40000000       0.016
 
 position of ions in fractional coordinates (direct lattice) 
   0.50000000  0.50000000  0.50000000
   0.50000000  0.50000000  0.00000000
   0.00000000  0.00000000  0.00000000
   0.75000000  0.25000000  0.75000000
   0.00000000  0.00000000  0.50000000
   0.00000000  0.50000000  0.00000000
   0.50000000  0.00000000  0.00000000
   0.75000000  0.75000000  0.75000000
   0.25000000  0.25000000  0.75000000
   0.25000000  0.75000000  0.25000000
   0.00000000  0.50000000  0.50000000
   0.25000000  0.75000000  0.75000000
   0.25000000  0.25000000  0.25000000
   0.75000000  0.25000000  0.25000000
   0.50000000  0.00000000  0.50000000
   0.75000000  0.75000000  0.25000000
 
 position of ions in cartesian coordinates  (Angst):
   3.29000000  3.29000000  3.29000000
   3.29000000  3.29000000  0.00000000
   0.00000000  0.00000000  0.00000000
   4.93500000  1.64500000  4.93500000
   0.00000000  0.00000000  3.29000000
   0.00000000  3.29000000  0.00000000
   3.29000000  0.00000000  0.00000000
   4.93500000  4.93500000  4.93500000
   1.64500000  1.64500000  4.93500000
   1.64500000  4.93500000  1.64500000
   0.00000000  3.29000000  3.29000000
   1.64500000  4.93500000  4.93500000
   1.64500000  1.64500000  1.64500000
   4.93500000  1.64500000  1.64500000
   3.29000000  0.00000000  3.29000000
   4.93500000  4.93500000  1.64500000
 


--------------------------------------------------------------------------------------------------------


 k-point   1 :   0.0000 0.0000 0.0000  plane waves:    2517
 k-point   2 :   0.2000 0.0000 0.0000  plane waves:    2545
 k-point   3 :   0.0000 0.2000 0.0000  plane waves:    2545
 k-point   4 :   0.0000 0.0000 0.2000  plane waves:    2545
 k-point   5 :   0.4000 0.0000 0.0000  plane waves:    2569
 k-point   6 :   0.0000 0.4000 0.0000  plane waves:    2569
 k-point   7 :   0.0000 0.0000 0.4000  plane waves:    2569
 k-point   8 :   0.2000 0.2000 0.0000  plane waves:    2562
 k-point   9 :   0.0000 0.2000 0.2000  plane waves:    2562
 k-point  10 :   0.2000 0.0000 0.2000  plane waves:    2562
 k-point  11 :  -0.2000 0.2000 0.0000  plane waves:    2562
 k-point  12 :  -0.2000 0.0000 0.2000  plane waves:    2562
 k-point  13 :   0.0000-0.2000 0.2000  plane waves:    2562
 k-point  14 :   0.4000 0.2000 0.0000  plane waves:    2566
 k-point  15 :   0.0000 0.4000 0.2000  plane waves:    2566
 k-point  16 :   0.2000 0.0000 0.4000  plane waves:    2566
 k-point  17 :  -0.2000 0.4000 0.0000  plane waves:    2566
 k-point  18 :  -0.4000 0.0000 0.2000  plane waves:    2566
 k-point  19 :   0.0000 0.2000 0.4000  plane waves:    2566
 k-point  20 :   0.0000-0.4000 0.2000  plane waves:    2566
 k-point  21 :  -0.2000 0.0000 0.4000  plane waves:    2566
 k-point  22 :   0.4000 0.0000 0.2000  plane waves:    2566
 k-point  23 :   0.0000-0.2000 0.4000  plane waves:    2566
 k-point  24 :   0.4000-0.2000 0.0000  plane waves:    2566
 k-point  25 :   0.2000 0.4000 0.0000  plane waves:    2566
 k-point  26 :   0.4000 0.4000 0.0000  plane waves:    2570
 k-point  27 :   0.0000 0.4000 0.4000  plane waves:    2570
 k-point  28 :   0.4000 0.0000 0.4000  plane waves:    2570
 k-point  29 :  -0.4000 0.4000 0.0000  plane waves:    2570
 k-point  30 :  -0.4000 0.0000 0.4000  plane waves:    2570
 k-point  31 :   0.0000-0.4000 0.4000  plane waves:    2570
 k-point  32 :   0.2000 0.2000 0.2000  plane waves:    2572
 k-point  33 :  -0.2000 0.2000 0.2000  plane waves:    2572
 k-point  34 :  -0.2000-0.2000 0.2000  plane waves:    2572
 k-point  35 :   0.2000-0.2000 0.2000  plane waves:    2572
 k-point  36 :   0.4000 0.2000 0.2000  plane waves:    2546
 k-point  37 :   0.2000 0.4000 0.2000  plane waves:    2546
 k-point  38 :   0.2000 0.2000 0.4000  plane waves:    2546
 k-point  39 :  -0.2000 0.4000 0.2000  plane waves:    2546
 k-point  40 :  -0.4000 0.2000 0.2000  plane waves:    2546
 k-point  41 :  -0.2000 0.2000 0.4000  plane waves:    2546
 k-point  42 :  -0.4000-0.2000 0.2000  plane waves:    2546
 k-point  43 :  -0.2000-0.4000 0.2000  plane waves:    2546
 k-point  44 :  -0.2000-0.2000 0.4000  plane waves:    2546
 k-point  45 :   0.2000-0.4000 0.2000  plane waves:    2546
 k-point  46 :   0.4000-0.2000 0.2000  plane waves:    2546
 k-point  47 :   0.2000-0.2000 0.4000  plane waves:    2546
 k-point  48 :   0.4000 0.4000 0.2000  plane waves:    2549
 k-point  49 :   0.2000 0.4000 0.4000  plane waves:    2549
 k-point  50 :   0.4000 0.2000 0.4000  plane waves:    2549
 k-point  51 :  -0.4000 0.4000 0.2000  plane waves:    2549
 k-point  52 :  -0.4000 0.2000 0.4000  plane waves:    2549
 k-point  53 :  -0.2000 0.4000 0.4000  plane waves:    2549
 k-point  54 :  -0.4000-0.4000 0.2000  plane waves:    2549
 k-point  55 :  -0.2000-0.4000 0.4000  plane waves:    2549
 k-point  56 :  -0.4000-0.2000 0.4000  plane waves:    2549
 k-point  57 :   0.4000-0.4000 0.2000  plane waves:    2549
 k-point  58 :   0.4000-0.2000 0.4000  plane waves:    2549
 k-point  59 :   0.2000-0.4000 0.4000  plane waves:    2549
 k-point  60 :   0.4000 0.4000 0.4000  plane waves:    2533
 k-point  61 :  -0.4000 0.4000 0.4000  plane waves:    2533
 k-point  62 :  -0.4000-0.4000 0.4000  plane waves:    2533
 k-point  63 :   0.4000-0.4000 0.4000  plane waves:    2533

 maximum and minimum number of plane-waves per node :       235      194

 maximum number of plane-waves:      2572
 maximum index in each direction: 
   IXMAX=    8   IYMAX=    8   IZMAX=    8
   IXMIN=   -8   IYMIN=   -8   IZMIN=   -8


 parallel 3D FFT for wavefunctions:
    minimum data exchange during FFTs selected (reduces bandwidth)
 parallel 3D FFT for charge:
    minimum data exchange during FFTs selected (reduces bandwidth)


 total amount of memory used by VASP MPI-rank0    47987. kBytes
=======================================================================

   base      :      30000. kBytes
   nonl-proj :       8332. kBytes
   fftplans  :        456. kBytes
   grid      :        919. kBytes
   one-center:         31. kBytes
   wavefun   :       8249. kBytes
 
     INWAV:  cpu time      0.0000: real time      0.0001
 Broyden mixing: mesh for mixing (old mesh)
   NGX = 17   NGY = 17   NGZ = 17
  (NGX  = 72   NGY  = 72   NGZ  = 72)
  gives a total of   4913 points

 initial charge density was supplied:
 charge density of overlapping atoms calculated
 number of electron     203.0000000 magnetization 
 keeping initial charge density in first step


--------------------------------------------------------------------------------------------------------


 Maximum index for augmentation-charges          517 (set IRDMAX)


--------------------------------------------------------------------------------------------------------


 First call to EWALD:  gamma=   0.269
 Maximum number of real-space cells 3x 3x 3
 Maximum number of reciprocal cells 3x 3x 3

    FEWALD:  cpu time      0.0011: real time      0.0011


--------------------------------------- Iteration      1(   1)  ---------------------------------------


    POTLOK:  cpu time      0.0061: real time      0.0520
    SETDIJ:  cpu time      0.0023: real time      0.0023
     EDDAV:  cpu time      4.8677: real time      4.8905
       DOS:  cpu time      0.0050: real time      0.0050
    --------------------------------------------
      LOOP:  cpu time      4.8811: real time      4.9499

 eigenvalue-minimisations  : 15920
 total energy-change (2. order) : 0.1807337E+04  (-0.7855301E+04)
 number of electron     203.0000000 magnetization 
 augmentation part      203.0000000 magnetization 

 Free energy of the ion-electron system (eV)
  ---------------------------------------------------
  alpha Z        PSCENC =      1757.93163040
  Ewald energy   TEWEN  =    -20573.59094034
  -Hartree energ DENC   =     -3766.45001889
  -exchange      EXHF   =         0.00000000
  -V(xc)+E(xc)   XCENC  =       773.22511292
  PAW double counting   =     18927.90705920   -18630.48591304
  entropy T*S    EENTRO =        -0.00197232
  eigenvalues    EBANDS =      -564.41670943
  atomic energy  EATOM  =     23883.21906170
  Solvation  Ediel_sol  =         0.00000000
  ---------------------------------------------------
  free energy    TOTEN  =      1807.33731019 eV

  energy without entropy =     1807.33928251  energy(sigma->0) =     1807.33829635


--------------------------------------------------------------------------------------------------------




--------------------------------------- Iteration      1(   2)  ---------------------------------------


     EDDAV:  cpu time      3.6380: real time      3.6544
       DOS:  cpu time      0.0042: real time      0.0042
    --------------------------------------------
      LOOP:  cpu time      3.6422: real time      3.6585

 eigenvalue-minimisations  : 16452
 total energy-change (2. order) :-0.1829901E+04  (-0.1769720E+04)
 number of electron     203.0000000 magnetization 
 augmentation part      203.0000000 magnetization 

 Free energy of the ion-electron system (eV)
  ---------------------------------------------------
  alpha Z        PSCENC =      1757.93163040
  Ewald energy   TEWEN  =    -20573.59094034
  -Hartree energ DENC   =     -3766.45001889
  -exchange      EXHF   =         0.00000000
  -V(xc)+E(xc)   XCENC  =       773.22511292
  PAW double counting   =     18927.90705920   -18630.48591304
  entropy T*S    EENTRO =        -0.00224165
  eigenvalues    EBANDS =     -2394.31777697
  atomic energy  EATOM  =     23883.21906170
  Solvation  Ediel_sol  =         0.00000000
  ---------------------------------------------------
  free energy    TOTEN  =       -22.56402667 eV

  energy without entropy =      -22.56178502  energy(sigma->0) =      -22.56290585


--------------------------------------------------------------------------------------------------------




--------------------------------------- Iteration      1(   3)  ---------------------------------------


     EDDAV:  cpu time      4.3269: real time      4.3464
       DOS:  cpu time      0.0044: real time      0.0044
    --------------------------------------------
      LOOP:  cpu time      4.3313: real time      4.3508

 eigenvalue-minimisations  : 25268
 total energy-change (2. order) :-0.1551358E+03  (-0.1473973E+03)
 number of electron     203.0000000 magnetization 
 augmentation part      203.0000000 magnetization 

 Free energy of the ion-electron system (eV)
  ---------------------------------------------------
  alpha Z        PSCENC =      1757.93163040
  Ewald energy   TEWEN  =    -20573.59094034
  -Hartree energ DENC   =     -3766.45001889
  -exchange      EXHF   =         0.00000000
  -V(xc)+E(xc)   XCENC  =       773.22511292
  PAW double counting   =     18927.90705920   -18630.48591304
  entropy T*S    EENTRO =        -0.00326605
  eigenvalues    EBANDS =     -2549.45253299
  atomic energy  EATOM  =     23883.21906170
  Solvation  Ediel_sol  =         0.00000000
  ---------------------------------------------------
  free energy    TOTEN  =      -177.69980709 eV

  energy without entropy =     -177.69654104  energy(sigma->0) =     -177.69817407


--------------------------------------------------------------------------------------------------------




--------------------------------------- Iteration      1(   4)  ---------------------------------------


     EDDAV:  cpu time      4.0193: real time      4.0365
       DOS:  cpu time      0.0044: real time      0.0044
    --------------------------------------------
      LOOP:  cpu time      4.0236: real time      4.0409

 eigenvalue-minimisations  : 24584
 total energy-change (2. order) :-0.1005948E+02  (-0.9771617E+01)
 number of electron     203.0000000 magnetization 
 augmentation part      203.0000000 magnetization 

 Free energy of the ion-electron system (eV)
  ---------------------------------------------------
  alpha Z        PSCENC =      1757.93163040
  Ewald energy   TEWEN  =    -20573.59094034
  -Hartree energ DENC   =     -3766.45001889
  -exchange      EXHF   =         0.00000000
  -V(xc)+E(xc)   XCENC  =       773.22511292
  PAW double counting   =     18927.90705920   -18630.48591304
  entropy T*S    EENTRO =        -0.00236066
  eigenvalues    EBANDS =     -2559.51292281
  atomic energy  EATOM  =     23883.21906170
  Solvation  Ediel_sol  =         0.00000000
  ---------------------------------------------------
  free energy    TOTEN  =      -187.75929152 eV

  energy without entropy =     -187.75693086  energy(sigma->0) =     -187.75811119


--------------------------------------------------------------------------------------------------------




--------------------------------------- Iteration      1(   5)  ---------------------------------------


     EDDAV:  cpu time      3.7940: real time      3.8181
       DOS:  cpu time      0.0050: real time      0.0051
    CHARGE:  cpu time      0.1589: real time      0.1594
    MIXING:  cpu time      0.0983: real time      0.0988
    --------------------------------------------
      LOOP:  cpu time      4.0563: real time      4.0814

 eigenvalue-minimisations  : 23320
 total energy-change (2. order) :-0.5788692E+00  (-0.5742636E+00)
 number of electron     202.9999814 magnetization 
 augmentation part       38.4753103 magnetization 

 Broyden mixing:
  rms(total) = 0.50497E+01    rms(broyden)= 0.50487E+01
  rms(prec ) = 0.55562E+01
  weight for this iteration     100.00

 Free energy of the ion-electron system (eV)
  ---------------------------------------------------
  alpha Z        PSCENC =      1757.93163040
  Ewald energy   TEWEN  =    -20573.59094034
  -Hartree energ DENC   =     -3766.45001889
  -exchange      EXHF   =         0.00000000
  -V(xc)+E(xc)   XCENC  =       773.22511292
  PAW double counting   =     18927.90705920   -18630.48591304
  entropy T*S    EENTRO =        -0.00234396
  eigenvalues    EBANDS =     -2560.09180872
  atomic energy  EATOM  =     23883.21906170
  Solvation  Ediel_sol  =         0.00000000
  ---------------------------------------------------
  free energy    TOTEN  =      -188.33816073 eV

  energy without entropy =     -188.33581677  energy(sigma->0) =     -188.33698875


--------------------------------------------------------------------------------------------------------




--------------------------------------- Iteration      1(   6)  ---------------------------------------


    POTLOK:  cpu time      0.0110: real time      0.0113
    SETDIJ:  cpu time      0.0027: real time      0.0027
     EDDAV:  cpu time     11.6640: real time     11.7140
       DOS:  cpu time      0.0045: real time      0.0045
    CHARGE:  cpu time      0.0782: real time      0.0785
    MIXING:  cpu time      0.0003: real time      0.0003
    --------------------------------------------
      LOOP:  cpu time     11.7606: real time     11.8113

 eigenvalue-minimisations  : 18728
 total energy-change (2. order) : 0.6592150E+01  (-0.1918891E+01)
 number of electron     202.9999803 magnetization 
 augmentation part       40.0789998 magnetization 

 Broyden mixing:
  rms(total) = 0.19920E+01    rms(broyden)= 0.19917E+01
  rms(prec ) = 0.25699E+01
  weight for this iteration     100.00

 eigenvalues of (default mixing * dielectric matrix)
  average eigenvalue GAMMA=   1.4528
  1.4528

 Free energy of the ion-electron system (eV)
  ---------------------------------------------------
  alpha Z        PSCENC =      1757.93163040
  Ewald energy   TEWEN  =    -20573.59094034
  -Hartree energ DENC   =     -3562.42257148
  -exchange      EXHF   =         0.00000000
  -V(xc)+E(xc)   XCENC  =       763.08102035
  PAW double counting   =     22673.56599468   -22397.13753429
  entropy T*S    EENTRO =        -0.00397640
  eigenvalues    EBANDS =     -2726.38869517
  atomic energy  EATOM  =     23883.21906170
  Solvation  Ediel_sol  =         0.00000000
  ---------------------------------------------------
  free energy    TOTEN  =      -181.74601056 eV

  energy without entropy =     -181.74203415  energy(sigma->0) =     -181.74402235


--------------------------------------------------------------------------------------------------------




--------------------------------------- Iteration      1(   7)  ---------------------------------------


    POTLOK:  cpu time      0.0043: real time      0.0044
    SETDIJ:  cpu time      0.0016: real time      0.0016
     EDDAV:  cpu time      5.1210: real time      5.1424
       DOS:  cpu time      0.0045: real time      0.0045
    CHARGE:  cpu time      0.0777: real time      0.0781
    MIXING:  cpu time      0.0003: real time      0.0003
    --------------------------------------------
      LOOP:  cpu time      5.2095: real time      5.2313

 eigenvalue-minimisations  : 22832
 total energy-change (2. order) :-0.1038087E+01  (-0.2026619E+01)
 number of electron     202.9999812 magnetization 
 augmentation part       39.6207329 magnetization 

 Broyden mixing:
  rms(total) = 0.13383E+01    rms(broyden)= 0.13379E+01
  rms(prec ) = 0.30045E+01
  weight for this iteration     100.00

 eigenvalues of (default mixing * dielectric matrix)
  average eigenvalue GAMMA=   1.0870
  1.6779  0.4961

 Free energy of the ion-electron system (eV)
  ---------------------------------------------------
  alpha Z        PSCENC =      1757.93163040
  Ewald energy   TEWEN  =    -20573.59094034
  -Hartree energ DENC   =     -3514.09372835
  -exchange      EXHF   =         0.00000000
  -V(xc)+E(xc)   XCENC  =       759.98106510
  PAW double counting   =     24954.62087006   -24683.38624820
  entropy T*S    EENTRO =        -0.00514319
  eigenvalues    EBANDS =     -2767.46066497
  atomic energy  EATOM  =     23883.21906170
  Solvation  Ediel_sol  =         0.00000000
  ---------------------------------------------------
  free energy    TOTEN  =      -182.78409780 eV

  energy without entropy =     -182.77895461  energy(sigma->0) =     -182.78152621


--------------------------------------------------------------------------------------------------------




--------------------------------------- Iteration      1(   8)  ---------------------------------------


    POTLOK:  cpu time      0.0084: real time      0.1004
    SETDIJ:  cpu time      0.0022: real time      0.0022
     EDDAV:  cpu time      3.2172: real time      3.2315
       DOS:  cpu time      0.0043: real time      0.0043
    CHARGE:  cpu time      0.0778: real time      0.0781
    MIXING:  cpu time      0.0004: real time      0.0004
    --------------------------------------------
      LOOP:  cpu time      3.3103: real time      3.4169

 eigenvalue-minimisations  : 19056
 total energy-change (2. order) : 0.3213643E+01  (-0.9541511E+00)
 number of electron     202.9999807 magnetization 
 augmentation part       40.2007782 magnetization 

 Broyden mixing:
  rms(total) = 0.39213E+00    rms(broyden)= 0.39140E+00
  rms(prec ) = 0.55895E+00
  weight for this iteration     100.00

 eigenvalues of (default mixing * dielectric matrix)
  average eigenvalue GAMMA=   1.0936
  1.7987  1.0785  0.4036

 Free energy of the ion-electron system (eV)
  ---------------------------------------------------
  alpha Z        PSCENC =      1757.93163040
  Ewald energy   TEWEN  =    -20573.59094034
  -Hartree energ DENC   =     -3464.10937617
  -exchange      EXHF   =         0.00000000
  -V(xc)+E(xc)   XCENC  =       757.80867499
  PAW double counting   =     26135.81325331   -25869.07011677
  entropy T*S    EENTRO =        -0.00575151
  eigenvalues    EBANDS =     -2807.56689033
  atomic energy  EATOM  =     23883.21906170
  Solvation  Ediel_sol  =         0.00000000
  ---------------------------------------------------
  free energy    TOTEN  =      -179.57045472 eV

  energy without entropy =     -179.56470321  energy(sigma->0) =     -179.56757896


--------------------------------------------------------------------------------------------------------




--------------------------------------- Iteration      1(   9)  ---------------------------------------


    POTLOK:  cpu time      0.0084: real time      0.0087
    SETDIJ:  cpu time      0.0022: real time      0.0022
     EDDAV:  cpu time      3.5670: real time      3.5827
       DOS:  cpu time      0.0045: real time      0.0045
    CHARGE:  cpu time      0.0778: real time      0.0783
    MIXING:  cpu time      0.0003: real time      0.0003
    --------------------------------------------
      LOOP:  cpu time      3.6601: real time      3.6768

 eigenvalue-minimisations  : 21616
 total energy-change (2. order) :-0.7963429E-01  (-0.1697347E+00)
 number of electron     202.9999808 magnetization 
 augmentation part       40.1956682 magnetization 

 Broyden mixing:
  rms(total) = 0.32412E+00    rms(broyden)= 0.32400E+00
  rms(prec ) = 0.48820E+00
  weight for this iteration     100.00

 eigenvalues of (default mixing * dielectric matrix)
  average eigenvalue GAMMA=   1.1167
  2.0846  1.5328  0.4870  0.3624

 Free energy of the ion-electron system (eV)
  ---------------------------------------------------
  alpha Z        PSCENC =      1757.93163040
  Ewald energy   TEWEN  =    -20573.59094034
  -Hartree energ DENC   =     -3460.88267959
  -exchange      EXHF   =         0.00000000
  -V(xc)+E(xc)   XCENC  =       757.66599586
  PAW double counting   =     26469.90475381   -26202.14229220
  entropy T*S    EENTRO =        -0.00602146
  eigenvalues    EBANDS =     -2811.74959719
  atomic energy  EATOM  =     23883.21906170
  Solvation  Ediel_sol  =         0.00000000
  ---------------------------------------------------
  free energy    TOTEN  =      -179.65008901 eV

  energy without entropy =     -179.64406756  energy(sigma->0) =     -179.64707828


--------------------------------------------------------------------------------------------------------




--------------------------------------- Iteration      1(  10)  ---------------------------------------


    POTLOK:  cpu time      0.0042: real time      0.0043
    SETDIJ:  cpu time      0.0016: real time      0.0017
     EDDAV:  cpu time      3.3665: real time      3.3823
       DOS:  cpu time      0.0049: real time      0.0049
    CHARGE:  cpu time      0.0754: real time      0.0756
    MIXING:  cpu time      0.0003: real time      0.0003
    --------------------------------------------
      LOOP:  cpu time      3.4529: real time      3.4692

 eigenvalue-minimisations  : 20200
 total energy-change (2. order) : 0.4714918E-01  (-0.3523008E-01)
 number of electron     202.9999809 magnetization 
 augmentation part       40.1321625 magnetization 

 Broyden mixing:
  rms(total) = 0.14399E+00    rms(broyden)= 0.14393E+00
  rms(prec ) = 0.20817E+00
  weight for this iteration     100.00

 eigenvalues of (default mixing * dielectric matrix)
  average eigenvalue GAMMA=   1.1615
  2.5751  1.6677  0.7895  0.3877  0.3877

 Free energy of the ion-electron system (eV)
  ---------------------------------------------------
  alpha Z        PSCENC =      1757.93163040
  Ewald energy   TEWEN  =    -20573.59094034
  -Hartree energ DENC   =     -3463.64689785
  -exchange      EXHF   =         0.00000000
  -V(xc)+E(xc)   XCENC  =       757.76942319
  PAW double counting   =     26775.70256380   -26505.46636725
  entropy T*S    EENTRO =        -0.00629120
  eigenvalues    EBANDS =     -2811.51512227
  atomic energy  EATOM  =     23883.21906170
  Solvation  Ediel_sol  =         0.00000000
  ---------------------------------------------------
  free energy    TOTEN  =      -179.60293983 eV

  energy without entropy =     -179.59664863  energy(sigma->0) =     -179.59979423


--------------------------------------------------------------------------------------------------------




--------------------------------------- Iteration      1(  11)  ---------------------------------------


    POTLOK:  cpu time      0.0042: real time      0.0044
    SETDIJ:  cpu time      0.0016: real time      0.0016
     EDDAV:  cpu time      3.4726: real time      3.4883
       DOS:  cpu time      0.0046: real time      0.0046
    CHARGE:  cpu time      0.0779: real time      0.0782
    MIXING:  cpu time      0.0003: real time      0.0003
    --------------------------------------------
      LOOP:  cpu time      3.5612: real time      3.5774

 eigenvalue-minimisations  : 20936
 total energy-change (2. order) :-0.2695577E-02  (-0.9769042E-02)
 number of electron     202.9999809 magnetization 
 augmentation part       40.1075807 magnetization 

 Broyden mixing:
  rms(total) = 0.58465E-01    rms(broyden)= 0.58418E-01
  rms(prec ) = 0.15630E+00
  weight for this iteration     100.00

 eigenvalues of (default mixing * dielectric matrix)
  average eigenvalue GAMMA=   1.0743
  2.6026  1.6858  0.8113  0.5760  0.4087  0.3611

 Free energy of the ion-electron system (eV)
  ---------------------------------------------------
  alpha Z        PSCENC =      1757.93163040
  Ewald energy   TEWEN  =    -20573.59094034
  -Hartree energ DENC   =     -3466.56942514
  -exchange      EXHF   =         0.00000000
  -V(xc)+E(xc)   XCENC  =       757.90247460
  PAW double counting   =     26953.62566502   -26681.15308927
  entropy T*S    EENTRO =        -0.00601906
  eigenvalues    EBANDS =     -2810.96499331
  atomic energy  EATOM  =     23883.21906170
  Solvation  Ediel_sol  =         0.00000000
  ---------------------------------------------------
  free energy    TOTEN  =      -179.60563540 eV

  energy without entropy =     -179.59961634  energy(sigma->0) =     -179.60262587


--------------------------------------------------------------------------------------------------------




--------------------------------------- Iteration      1(  12)  ---------------------------------------


    POTLOK:  cpu time      0.0042: real time      0.0043
    SETDIJ:  cpu time      0.0017: real time      0.0017
     EDDAV:  cpu time      3.4102: real time      3.4247
       DOS:  cpu time      0.0046: real time      0.0046
    CHARGE:  cpu time      0.0779: real time      0.0782
    MIXING:  cpu time      0.0003: real time      0.0003
    --------------------------------------------
      LOOP:  cpu time      3.4988: real time      3.5138

 eigenvalue-minimisations  : 20528
[...]
     25     -25.3185      2.00000
     26     -25.2578      2.00000
     27     -24.8897      2.00000
     28     -24.8050      2.00000
     29     -24.7009      2.00000
     30     -24.6837      2.00000
     31     -24.6685      2.00000
     32     -24.6589      2.00000
     33     -24.6457      2.00000
     34     -24.6282      2.00000
     35     -24.6217      2.00000
     36     -24.6066      2.00000
     37     -24.5876      2.00000
     38     -24.5308      2.00000
     39     -24.4137      2.00000
     40     -24.3439      2.00000
     41     -24.2661      2.00000
     42     -21.6220      2.00000
     43     -21.5466      2.00000
     44     -21.3751      2.00000
     45     -21.2592      2.00000
     46     -21.2452      2.00000
     47     -21.2394      2.00000
     48     -21.2327      2.00000
     49     -21.2212      2.00000
     50     -21.2146      2.00000
     51     -21.2032      2.00000
     52     -21.1992      2.00000
     53     -21.1802      2.00000
     54     -21.1658      2.00000
     55     -21.1575      2.00000
     56     -21.1499      2.00000
     57     -21.0268      2.00000
     58     -20.8969      2.00000
     59     -20.8485      2.00000
     60       4.0120      2.00000
     61       4.4572      2.00000
     62       4.9210      2.00000
     63       4.9766      2.00000
     64       5.3395      2.00000
     65       5.4989      2.00000
     66       5.7730      2.00000
     67       6.2463      2.00000
     68       6.5014      2.00000
     69       6.5495      2.00000
     70       6.6018      2.00000
     71       6.7019      2.00000
     72       6.7173      2.00000
     73       6.7986      2.00000
     74       6.8466      2.00000
     75       6.8664      2.00000
     76       6.9046      2.00000
     77       6.9532      2.00000
     78       6.9725      2.00000
     79       7.0188      2.00000
     80       7.3124      2.00000
     81       7.3361      2.00000
     82       7.4326      2.00000
     83       7.4992      2.00000
     84       7.5292      2.00000
     85       7.5842      2.00000
     86       7.6116      2.00000
     87       7.6511      2.00000
     88       7.6799      2.00000
     89       7.7017      2.00000
     90       7.7331      2.00000
     91       7.7726      2.00000
     92       7.7868      2.00000
     93       7.8250      2.00000
     94       7.8405      2.00000
     95       7.8674      2.00000
     96       7.8876      2.00000
     97       7.9099      2.00000
     98       7.9616      2.00000
     99       7.9788      2.00000
    100       8.0420      2.00000
    101       8.0756      2.00000
    102       8.1380      2.00000
    103       8.1879      2.00000
    104       8.2178      2.00000
    105       8.2429      2.00000
    106       8.2939      2.00000
    107       8.6706      2.00000
    108      11.3376      0.00000
    109      11.3892      0.00000
    110      11.4940      0.00000
    111      11.5122      0.00000
    112      11.6461      0.00000
    113      11.7428      0.00000
    114      11.8281      0.00000
    115      11.8657      0.00000
    116      11.8831      0.00000
    117      11.9505      0.00000
    118      12.0287      0.00000
    119      12.1525      0.00000
    120      12.2401      0.00000
    121      12.2792      0.00000
    122      12.3991      0.00000
    123      12.4154      0.00000
    124      12.5239      0.00000

 k-point    63 :       0.4000   -0.4000    0.4000
  band No.  band energies     occupation 
      1     -64.3417      2.00000
      2     -64.3200      2.00000
      3     -51.3033      2.00000
      4     -51.2740      2.00000
      5     -51.2530      2.00000
      6     -45.1737      2.00000
      7     -45.1425      2.00000
      8     -45.1189      2.00000
      9     -45.0955      2.00000
     10     -45.0881      2.00000
     11     -45.0385      2.00000
     12     -28.7059      2.00000
     13     -28.5783      2.00000
     14     -28.5612      2.00000
     15     -28.5447      2.00000
     16     -28.5211      2.00000
     17     -28.4081      2.00000
     18     -25.5993      2.00000
     19     -25.5624      2.00000
     20     -25.4624      2.00000
     21     -25.4053      2.00000
     22     -25.4039      2.00000
     23     -25.3896      2.00000
     24     -25.3835      2.00000
     25     -25.3209      2.00000
     26     -25.2560      2.00000
     27     -24.8842      2.00000
     28     -24.8094      2.00000
     29     -24.7042      2.00000
     30     -24.6876      2.00000
     31     -24.6684      2.00000
     32     -24.6559      2.00000
     33     -24.6482      2.00000
     34     -24.6322      2.00000
     35     -24.6200      2.00000
     36     -24.6012      2.00000
     37     -24.5872      2.00000
     38     -24.5315      2.00000
     39     -24.4139      2.00000
     40     -24.3419      2.00000
     41     -24.2649      2.00000
     42     -21.6198      2.00000
     43     -21.5436      2.00000
     44     -21.3733      2.00000
     45     -21.2600      2.00000
     46     -21.2482      2.00000
     47     -21.2424      2.00000
     48     -21.2339      2.00000
     49     -21.2288      2.00000
     50     -21.2139      2.00000
     51     -21.2068      2.00000
     52     -21.1925      2.00000
     53     -21.1786      2.00000
     54     -21.1683      2.00000
     55     -21.1564      2.00000
     56     -21.1525      2.00000
     57     -21.0241      2.00000
     58     -20.8954      2.00000
     59     -20.8456      2.00000
     60       4.0022      2.00000
     61       4.4946      2.00000
     62       4.8186      2.00000
     63       5.0479      2.00000
     64       5.3881      2.00000
     65       5.5138      2.00000
     66       5.6786      2.00000
     67       6.2884      2.00000
     68       6.5692      2.00000
     69       6.5726      2.00000
     70       6.6042      2.00000
     71       6.6341      2.00000
     72       6.6840      2.00000
     73       6.7670      2.00000
     74       6.8110      2.00000
     75       6.8490      2.00000
     76       6.9124      2.00000
     77       6.9587      2.00000
     78       7.0180      2.00000
     79       7.0612      2.00000
     80       7.3225      2.00000
     81       7.4023      2.00000
     82       7.4540      2.00000
     83       7.5110      2.00000
     84       7.5246      2.00000
     85       7.5770      2.00000
     86       7.5931      2.00000
     87       7.6093      2.00000
     88       7.6209      2.00000
     89       7.6595      2.00000
     90       7.7298      2.00000
     91       7.7562      2.00000
     92       7.7691      2.00000
     93       7.7895      2.00000
     94       7.8213      2.00000
     95       7.9018      2.00000
     96       7.9204      2.00000
     97       7.9258      2.00000
     98       7.9804      2.00000
     99       8.0378      2.00000
    100       8.0725      2.00000
    101       8.0875      2.00000
    102       8.1237      2.00000
    103       8.1484      2.00000
    104       8.1692      2.00000
    105       8.2579      2.00000
    106       8.2755      2.00000
    107       8.7109      2.00000
    108      11.2596      0.00000
    109      11.3950      0.00000
    110      11.5243      0.00000
    111      11.5648      0.00000
    112      11.6709      0.00000
    113      11.6865      0.00000
    114      11.7470      0.00000
    115      11.8289      0.00000
    116      11.9521      0.00000
    117      11.9698      0.00000
    118      12.1419      0.00000
    119      12.2169      0.00000
    120      12.2371      0.00000
    121      12.3164      0.00000
    122      12.3691      0.00000
    123      12.4267      0.00000
    124      12.5343      0.00000


--------------------------------------------------------------------------------------------------------


 soft charge-density along one line, spin component           1
         0         1         2         3         4         5         6         7         8         9
 total charge-density along one line
 
 pseudopotential strength for first ion, spin component:           1
  5.788 -20.432   0.001   0.002   0.001  -0.001  -0.004  -0.002
-20.432   9.335   0.001   0.002   0.002  -0.000  -0.000  -0.000
  0.001   0.001  -9.851   0.001  -0.003   6.112  -0.002   0.003
  0.002   0.002   0.001  -9.847  -0.000  -0.002   6.109   0.001
  0.001   0.002  -0.003  -0.000  -9.848   0.003   0.001   6.110
 -0.001  -0.000   6.112  -0.002   0.003   7.872   0.001  -0.002
 -0.004  -0.000  -0.002   6.109   0.001   0.001   7.874  -0.000
 -0.002  -0.000   0.003   0.001   6.110  -0.002  -0.000   7.873
 -0.002  -0.001   0.001   0.000   0.001  -0.001  -0.000  -0.001
  0.001   0.000   0.002   0.001   0.000  -0.002  -0.001  -0.000
  0.001   0.000  -0.000   0.001  -0.001   0.000  -0.002   0.001
 -0.000  -0.000   0.000   0.001   0.002  -0.000  -0.001  -0.002
  0.001   0.000  -0.001  -0.000   0.001   0.001   0.000  -0.001
 -0.003  -0.001   0.001   0.000   0.001  -0.002  -0.001  -0.001
  0.001   0.001   0.002   0.001   0.000  -0.002  -0.001  -0.001
  0.001   0.000  -0.000   0.002  -0.001   0.000  -0.002   0.001
 -0.000  -0.000   0.000   0.001   0.002  -0.001  -0.002  -0.002
  0.001   0.000  -0.001  -0.000   0.001   0.001   0.000  -0.001
 total augmentation occupancy for first ion, spin component:           1
  1.995  -0.047  -0.000   0.000  -0.000  -0.000   0.000  -0.000  -0.012   0.004   0.003   0.003   0.001   0.010  -0.003  -0.002
 -0.047   1.322  -0.001   0.001  -0.000  -0.000  -0.003  -0.002  -0.028   0.019   0.027  -0.002   0.030   0.008  -0.011  -0.011
 -0.000  -0.001   1.996  -0.000   0.000  -0.030   0.001  -0.002  -0.001   0.004   0.000  -0.004  -0.000   0.001  -0.002  -0.000
  0.000   0.001  -0.000   1.996  -0.000   0.001  -0.029   0.001  -0.004  -0.005   0.007  -0.001   0.000   0.003   0.003  -0.005
 -0.000  -0.000   0.000  -0.000   1.996  -0.002   0.001  -0.030  -0.005  -0.004  -0.001   0.004   0.002   0.003   0.003   0.001
 -0.000  -0.000  -0.030   0.001  -0.002   0.067  -0.001   0.002  -0.004  -0.013   0.002   0.002   0.003   0.002   0.007  -0.001
  0.000  -0.003   0.001  -0.029   0.001  -0.001   0.067  -0.001   0.001   0.005  -0.007  -0.003   0.000  -0.001  -0.004   0.003
 -0.000  -0.002  -0.002   0.001  -0.030   0.002  -0.001   0.070   0.006   0.001   0.002  -0.013  -0.004  -0.004  -0.001  -0.001
 -0.012  -0.028  -0.001  -0.004  -0.005  -0.004   0.001   0.006   3.375  -0.048   0.085   0.044  -0.006  -1.429   0.030  -0.039
  0.004   0.019   0.004  -0.005  -0.004  -0.013   0.005   0.001  -0.048   3.395   0.016  -0.023  -0.026   0.030  -1.435  -0.007
  0.003   0.027   0.000   0.007  -0.001   0.002  -0.007   0.002   0.085   0.016   2.765   0.013  -0.033  -0.038  -0.007  -1.253
  0.003  -0.002  -0.004  -0.001   0.004   0.002  -0.003  -0.013   0.044  -0.023   0.013   3.367   0.020  -0.020  -0.003  -0.005
  0.001   0.030  -0.000   0.000   0.002   0.003   0.000  -0.004  -0.006  -0.026  -0.033   0.020   2.684   0.002   0.011   0.012
  0.010   0.008   0.001   0.003   0.003   0.002  -0.001  -0.004  -1.429   0.030  -0.038  -0.020   0.002   0.618  -0.017   0.017
 -0.003  -0.011  -0.002   0.003   0.003   0.007  -0.004  -0.001   0.030  -1.435  -0.007  -0.003   0.011  -0.017   0.618   0.003
 -0.002  -0.011  -0.000  -0.005   0.001  -0.001   0.003  -0.001  -0.039  -0.007  -1.253  -0.005   0.012   0.017   0.003   0.576
 -0.002   0.006   0.003   0.001  -0.002  -0.001   0.002   0.007  -0.020  -0.004  -0.005  -1.430  -0.008   0.010   0.006   0.002
 -0.001  -0.011  -0.000  -0.000  -0.001  -0.001  -0.000   0.002   0.002   0.011   0.012  -0.009  -1.223  -0.001  -0.005  -0.004


------------------------ aborting loop because EDIFF is reached ----------------------------------------


    CHARGE:  cpu time      0.0889: real time      0.0892
    FORLOC:  cpu time      0.0005: real time      0.0005
    FORNL :  cpu time      0.7500: real time      0.7525
    STRESS:  cpu time      0.9680: real time      0.9715
    FORCOR:  cpu time      0.0303: real time      0.0304
    FORHAR:  cpu time      0.1630: real time      0.1637
    MIXING:  cpu time      0.0669: real time      0.0672
    OFIELD:  cpu time      0.0000: real time      0.0000

  FORCE on cell =-STRESS in cart. coord.  units (eV):
  Direction    XX          YY          ZZ          XY          YZ          ZX
  --------------------------------------------------------------------------------------
  Alpha Z  1757.93163  1757.93163  1757.93163
  Ewald   -6871.97551 -6853.45774 -6848.22304    -0.00000    10.53841    -2.10768
  Hartree  1143.13802  1160.73169  1163.80935     1.17161     9.20038    -1.73908
  E(xc)    -922.53787  -922.54605  -922.56986    -0.01335    -0.00287     0.00197
  Local    1553.64392  1518.14043  1511.22039    -2.92449   -19.63798     3.76812
  n-local  -397.03866  -396.78600  -399.79155     2.18022     0.08554    -0.13652
  augment   454.05541   454.01375   454.13361     0.24443    -0.02002     0.02640
  Kinetic  3265.39508  3264.63618  3265.89153    -0.71889    -0.18132     0.20427
  Fock        0.00000     0.00000     0.00000     0.00000     0.00000     0.00000
  -------------------------------------------------------------------------------------
  Total     -17.38799   -17.33611   -17.59793    -0.06048    -0.01785     0.01748
  in kB     -97.78725   -97.49549   -98.96794    -0.34013    -0.10041     0.09829
  external pressure =      -98.08 kB  Pullay stress =        0.00 kB


 VOLUME and BASIS-vectors are now :
 -----------------------------------------------------------------------------
  energy-cutoff  :      250.00
  volume of cell :      284.89
      direct lattice vectors                 reciprocal lattice vectors
     6.580000000  0.000000000  0.000000000     0.151975684  0.000000000  0.000000000
     0.000000000  6.580000000  0.000000000     0.000000000  0.151975684  0.000000000
     0.000000000  0.000000000  6.580000000     0.000000000  0.000000000  0.151975684

  length of vectors
     6.580000000  6.580000000  6.580000000     0.151975684  0.151975684  0.151975684


 FORCES acting on ions
    electron-ion (+dipol)            ewald-force                    non-local-force                 convergence-correction
 -----------------------------------------------------------------------------------------------
   0.512E+02 0.105E+02 0.511E+02   -.510E+02 -.102E+02 -.510E+02   0.537E-01 -.987E-01 0.202E+00   -.260E-04 -.148E-05 0.447E-04
   0.512E+02 0.105E+02 -.511E+02   -.510E+02 -.102E+02 0.510E+02   0.614E-01 -.112E+00 -.208E+00   -.234E-04 -.305E-05 -.447E-04
   -.512E+02 -.105E+02 -.511E+02   0.510E+02 0.102E+02 0.510E+02   -.458E-01 0.959E-01 -.206E+00   0.119E-04 0.880E-05 -.438E-04
   -.414E+02 -.413E+02 0.203E+02   0.408E+02 0.408E+02 -.204E+02   0.887E-01 0.105E+00 0.173E+00   0.531E-04 -.331E-04 -.101E-03
   -.512E+02 -.105E+02 0.511E+02   0.510E+02 0.102E+02 -.510E+02   -.413E-01 0.863E-01 0.199E+00   0.114E-04 0.742E-05 0.459E-04
   -.512E+02 0.105E+02 -.511E+02   0.510E+02 -.102E+02 0.510E+02   -.576E-01 -.100E+00 -.185E+00   0.214E-04 -.137E-04 -.315E-04
   0.550E+02 -.112E+02 -.549E+02   -.549E+02 0.110E+02 0.549E+02   0.444E-01 0.580E-01 -.155E+00   -.297E-04 -.947E-05 -.421E-04
   -.442E+02 0.442E+02 0.218E+02   0.439E+02 -.439E+02 -.220E+02   -.795E-02 0.447E-03 0.121E+00   0.567E-04 0.243E-04 -.862E-04
   0.442E+02 -.442E+02 0.218E+02   -.439E+02 0.439E+02 -.220E+02   0.322E-01 -.283E-01 0.104E+00   -.664E-04 -.102E-04 -.899E-04
   0.350E+02 0.350E+02 -.172E+02   -.345E+02 -.345E+02 0.173E+02   0.157E-01 0.552E-01 -.106E+00   -.479E-04 0.722E-05 0.695E-04
   -.434E+02 0.891E+01 0.433E+02   0.431E+02 -.863E+01 -.431E+02   -.510E-01 -.556E-01 0.156E+00   0.126E-04 -.268E-04 0.564E-04
   0.351E+02 0.351E+02 0.172E+02   -.345E+02 -.345E+02 -.173E+02   -.605E-01 -.258E-01 0.111E+00   -.239E-04 0.265E-04 -.800E-04
   0.350E+02 -.350E+02 -.172E+02   -.345E+02 0.345E+02 0.173E+02   -.501E-02 -.203E-02 -.100E+00   -.568E-04 0.433E-05 0.615E-04
   -.350E+02 -.350E+02 -.172E+02   0.345E+02 0.345E+02 0.173E+02   -.548E-01 -.124E-01 -.111E+00   0.491E-04 -.145E-04 0.682E-04
   0.551E+02 -.112E+02 0.550E+02   -.549E+02 0.110E+02 -.549E+02   0.198E-01 0.503E-02 0.595E-01   -.336E-04 -.153E-04 0.249E-04
   -.443E+02 0.443E+02 -.219E+02   0.439E+02 -.439E+02 0.220E+02   -.396E-01 0.481E-01 -.245E-01   0.677E-04 0.139E-04 0.770E-04
 -----------------------------------------------------------------------------------------------
   0.477E-01 -.188E-01 -.307E-01   0.213E-13 0.142E-12 0.000E+00   -.476E-01 0.188E-01 0.308E-01   -.239E-04 -.351E-04 -.716E-04
 
 
 POSITION                                       TOTAL-FORCE (eV/Angst)
 -----------------------------------------------------------------------------------
      3.29000      3.29000      3.29000         0.294225      0.153737      0.330144
      3.29000      3.29000      0.00000         0.315010      0.159026     -0.343757
      0.00000      0.00000      0.00000        -0.265175     -0.195017     -0.336447
      4.93500      1.64500      4.93500        -0.472521     -0.415437      0.087356
      0.00000      0.00000      3.29000        -0.249637     -0.186797      0.326590
      0.00000      3.29000      0.00000        -0.257075      0.168770     -0.309237
      3.29000      0.00000      0.00000         0.172602     -0.173117     -0.129447
      4.93500      4.93500      4.93500        -0.325001      0.320868     -0.008571
      1.64500      1.64500      4.93500         0.300466     -0.298895     -0.034571
      1.64500      4.93500      1.64500         0.492823      0.537610     -0.026804
      0.00000      3.29000      3.29000        -0.263960      0.227078      0.309192
      1.64500      4.93500      4.93500         0.509498      0.543313      0.043888
      1.64500      1.64500      1.64500         0.501200     -0.506578     -0.068440
      4.93500      1.64500      1.64500        -0.559582     -0.505085     -0.037326
      3.29000      0.00000      3.29000         0.205284     -0.219847      0.173258
      4.93500      4.93500      1.64500        -0.398157      0.390370      0.024171
 -----------------------------------------------------------------------------------
    total drift:                                0.000023     -0.000003      0.000001


--------------------------------------------------------------------------------------------------------



  FREE ENERGIE OF THE ION-ELECTRON SYSTEM (eV)
  ---------------------------------------------------
  free  energy   TOTEN  =      -179.59755426 eV

  energy  without entropy=     -179.59139450  energy(sigma->0) =     -179.59447438
 


--------------------------------------------------------------------------------------------------------


    POTLOK:  cpu time      0.0117: real time      0.0118


--------------------------------------------------------------------------------------------------------


     LOOP+:  cpu time    101.7741: real time    103.2610
    4ORBIT:  cpu time      0.0000: real time      0.0000

 total amount of memory used by VASP MPI-rank0    47987. kBytes
=======================================================================

   base      :      30000. kBytes
   nonl-proj :       8332. kBytes
   fftplans  :        456. kBytes
   grid      :        919. kBytes
   one-center:         31. kBytes
   wavefun   :       8249. kBytes
 
  
  
 General timing and accounting informations for this job:
 ========================================================
  
                  Total CPU time used (sec):      128.802
                            User time (sec):      126.719
                          System time (sec):        2.083
                         Elapsed time (sec):      132.828
  
                   Maximum memory used (kb):       92804.
                   Average memory used (kb):          N/A
  
                          Minor page faults:        10277
                          Major page faults:            0
                 Voluntary context switches:          227
