 vasp.6.3.1 04May22 (build Jul 26 2022 04:02:40) complex                        
  
 executed on             LinuxIFC date 2023.11.30  02:58:53
 running on   48 total cores
 distrk:  each k-point on   48 cores,    1 groups
 distr:  one band on NCORE=  12 cores,    4 groups


--------------------------------------------------------------------------------------------------------


 INCAR:
   ISTART = 0
   NWRITE = 2
   PREC = Accurate
   ENCUT = 250
   GGA = PE
   NSW = 0
   ISIF = 2
   ISYM = 2
   NBLOCK = 1
   KBLOCK = 1
   IBRION = -1
   NELM = 80
   EDIFF = 1E-08
   EDIFFG = -0.01
   ALGO = Normal
   LDIAG = .TRUE.
   LREAL = .FALSE.
   ISMEAR = 0
   SIGMA = 0.02
   ICHARG = 2
   LPLANE = .TRUE.
   NPAR = 4
   LSCALU = .FALSE.
   NSIM = 4
   LWAVE = .FALSE.
   LCHARG = .FALSE.
   ICORELEVEL = 1

 POTCAR:    PAW_PBE Nb_sv 25May2007               
 POTCAR:    PAW_PBE Mo_sv 02Feb2006               
 POTCAR:    PAW_PBE Ta_pv 07Sep2000               
 POTCAR:    PAW_PBE W_sv 04Sep2015                
 POTCAR:    PAW_PBE Nb_sv 25May2007               
   SHA256 =  0e8fc07c9fcd1164cf2ade22d0399fd28f85e91cd773dfa6cf24839a48c95e24 Nb_sv/POTCAR          
   COPYR  = (c) Copyright 25May2007 Georg Kresse                                                    
   COPYR  = This file is part of the software VASP. Any use, copying, and all other rights are regul
   COPYR  = If you do not have a valid VASP license, you may not use, copy or distribute this file. 
   VRHFIN =Nb: 4p5s4d                                                                               
   LEXCH  = PE                                                                                      
   EATOM  =  1555.1913 eV,  114.3033 Ry                                                             
                                                                                                    
   TITEL  = PAW_PBE Nb_sv 25May2007                                                                 
   LULTRA =        F    use ultrasoft PP ?                                                          
   IUNSCR =        1    unscreen: 0-lin 1-nonlin 2-no                                               
   RPACOR =    1.800    partial core radius                                                         
   POMASS =   92.910; ZVAL   =   13.000    mass and valenz                                          
   RCORE  =    2.400    outmost cutoff radius                                                       
   RWIGS  =    2.400; RWIGS  =    1.270    wigner-seitz radius (au A)                               
   ENMAX  =  293.235; ENMIN  =  219.927 eV                                                          
   ICORE  =        3    local potential                                                             
   LCOR   =        T    correct aug charges                                                         
   LPAW   =        T    paw PP                                                                      
   EAUG   =  455.659                                                                                
   DEXC   =    0.000                                                                                
   RMAX   =    2.456    core radius for proj-oper                                                   
   RAUG   =    1.300    factor for augmentation sphere                                              
   RDEP   =    2.451    radius for radial grids                                                     
   RDEPT  =    1.956    core radius for aug-charge                                                  
                                                                                                    
   Atomic configuration                                                                             
   11 entries                                                                                       
     n  l   j            E        occ.                                                              
     1  0  0.50    -18805.2457   2.0000                                                             
     2  0  0.50     -2630.2869   2.0000                                                             
     2  1  1.50     -2348.4046   6.0000                                                             
     3  0  0.50      -438.8757   2.0000                                                             
     3  1  1.50      -346.7588   6.0000                                                             
     3  2  2.50      -196.2560  10.0000                                                             
     4  0  0.50       -58.3859   2.0000                                                             
     5  0  0.50        -3.9816   1.0000                                                             
     4  1  1.50       -34.5141   6.0000                                                             
     4  2  2.50        -3.0408   4.0000                                                             
     4  3  2.50        -1.3606   0.0000                                                             
   Description                                                                                      
     l       E           TYP  RCUT    TYP  RCUT                                                     
     0    -58.3859094     23  2.200                                                                 
     0     -3.9816262     23  2.200                                                                 
     1    -34.5140738     23  2.200                                                                 
     1     13.6058260     23  2.200                                                                 
     2     -3.0408010     23  2.200                                                                 
     2     -0.1283038     23  2.200                                                                 
     3     -1.3605826     23  2.400                                                                 
  local pseudopotential read in
  partial core-charges read in
  partial kinetic energy density read in
  atomic valenz-charges read in
  non local Contribution for L=           0  read in
    real space projection operators read in
  non local Contribution for L=           0  read in
    real space projection operators read in
  non local Contribution for L=           1  read in
    real space projection operators read in
  non local Contribution for L=           1  read in
    real space projection operators read in
  non local Contribution for L=           2  read in
    real space projection operators read in
  non local Contribution for L=           2  read in
    real space projection operators read in
    PAW grid and wavefunctions read in
 
   number of l-projection  operators is LMAX  =           6
   number of lm-projection operators is LMMAX =          18
 
 POTCAR:    PAW_PBE Mo_sv 02Feb2006               
   SHA256 =  2731df97e41766cc617548c5a8267718fdef1f509ac6bafa01e745abea2bdfaa Mo_sv/POTCAR          
   COPYR  = (c) Copyright 02Feb2006 Georg Kresse                                                    
   COPYR  = This file is part of the software VASP. Any use, copying, and all other rights are regul
   COPYR  = If you do not have a valid VASP license, you may not use, copy or distribute this file. 
   VRHFIN =Mo: 4p5s4d                                                                               
   LEXCH  = PE                                                                                      
   EATOM  =  1862.2866 eV,  136.8742 Ry                                                             
                                                                                                    
   TITEL  = PAW_PBE Mo_sv 02Feb2006                                                                 
   LULTRA =        F    use ultrasoft PP ?                                                          
   IUNSCR =        1    unscreen: 0-lin 1-nonlin 2-no                                               
   RPACOR =    2.200    partial core radius                                                         
   POMASS =   95.940; ZVAL   =   14.000    mass and valenz                                          
   RCORE  =    2.500    outmost cutoff radius                                                       
   RWIGS  =    2.750; RWIGS  =    1.455    wigner-seitz radius (au A)                               
   ENMAX  =  242.676; ENMIN  =  182.007 eV                                                          
   ICORE  =        3    local potential                                                             
   LCOR   =        T    correct aug charges                                                         
   LPAW   =        T    paw PP                                                                      
   EAUG   =  446.014                                                                                
   DEXC   =    0.000                                                                                
   RMAX   =    2.563    core radius for proj-oper                                                   
   RAUG   =    1.300    factor for augmentation sphere                                              
   RDEP   =    2.641    radius for radial grids                                                     
   RDEPT  =    2.031    core radius for aug-charge                                                  
                                                                                                    
   Atomic configuration                                                                             
   11 entries                                                                                       
     n  l   j            E        occ.                                                              
     1  0  0.50    -19819.0341   2.0000                                                             
     2  0  0.50     -2799.0127   2.0000                                                             
     2  1  1.50     -2502.0276   6.0000                                                             
     3  0  0.50      -476.4449   2.0000                                                             
     3  1  1.50      -379.1496   6.0000                                                             
     3  2  2.50      -220.9367  10.0000                                                             
     4  0  0.50       -64.3378   2.0000                                                             
     5  0  0.50        -4.0862   1.0000                                                             
     4  1  1.50       -38.4773   6.0000                                                             
     4  2  2.50        -3.7535   5.0000                                                             
     4  3  2.50        -1.3606   0.0000                                                             
   Description                                                                                      
     l       E           TYP  RCUT    TYP  RCUT                                                     
     0    -64.3377829     23  2.100                                                                 
     0     -4.0861640     23  2.400                                                                 
     1    -38.4772993     23  2.100                                                                 
     1     13.6058260     23  2.100                                                                 
     2     -3.7534941     23  2.400                                                                 
     2     -5.1140767     23  2.400                                                                 
     3     -4.0817478     23  2.500                                                                 
  local pseudopotential read in
  partial core-charges read in
  partial kinetic energy density read in
  atomic valenz-charges read in
  non local Contribution for L=           0  read in
    real space projection operators read in
  non local Contribution for L=           0  read in
    real space projection operators read in
  non local Contribution for L=           1  read in
    real space projection operators read in
  non local Contribution for L=           1  read in
    real space projection operators read in
  non local Contribution for L=           2  read in
    real space projection operators read in
  non local Contribution for L=           2  read in
    real space projection operators read in
    PAW grid and wavefunctions read in
 
   number of l-projection  operators is LMAX  =           6
   number of lm-projection operators is LMMAX =          18
 
 POTCAR:    PAW_PBE Ta_pv 07Sep2000               
   SHA256 =  00d0a14a36c127416459414afb8617d9754996fffa60a2465888e660b20a452f Ta_pv/POTCAR          
   COPYR  = (c) Copyright 07Sep2000 Georg Kresse                                                    
   COPYR  = This file is part of the software VASP. Any use, copying, and all other rights are regul
   COPYR  = If you do not have a valid VASP license, you may not use, copy or distribute this file. 
   VRHFIN =Ta:  5p6s5d                                                                              
   LEXCH  = PE                                                                                      
   EATOM  =  1047.1984 eV,   76.9669 Ry                                                             
                                                                                                    
   TITEL  = PAW_PBE Ta_pv 07Sep2000                                                                 
   LULTRA =        F    use ultrasoft PP ?                                                          
   IUNSCR =        1    unscreen: 0-lin 1-nonlin 2-no                                               
   RPACOR =    2.330    partial core radius                                                         
   POMASS =  180.948; ZVAL   =   11.000    mass and valenz                                          
   RCORE  =    2.500    outmost cutoff radius                                                       
   RWIGS  =    2.840; RWIGS  =    1.503    wigner-seitz radius (au A)                               
   ENMAX  =  223.667; ENMIN  =  167.750 eV                                                          
   RCLOC  =    2.205    cutoff for local pot                                                        
   LCOR   =        T    correct aug charges                                                         
   LPAW   =        T    paw PP                                                                      
   EAUG   =  377.421                                                                                
   DEXC   =    0.000                                                                                
   RMAX   =    2.551    core radius for proj-oper                                                   
   RAUG   =    1.300    factor for augmentation sphere                                              
   RDEP   =    2.526    radius for radial grids                                                     
   RDEPT  =    2.132    core radius for aug-charge                                                  
                                                                                                    
   Atomic configuration                                                                             
   15 entries                                                                                       
     n  l   j            E        occ.                                                              
     1  0  0.50    -67341.2801   2.0000                                                             
     2  0  0.50    -11566.9369   2.0000                                                             
     2  1  1.50    -10134.1175   6.0000                                                             
     3  0  0.50     -2648.5614   2.0000                                                             
     3  1  1.50     -2222.6006   6.0000                                                             
     3  2  2.50     -1726.3114  10.0000                                                             
     4  0  0.50      -538.6957   2.0000                                                             
     4  1  1.50      -399.0125   6.0000                                                             
     4  2  2.50      -220.3955  10.0000                                                             
     4  3  3.50       -23.0371  14.0000                                                             
     5  0  0.50       -71.2900   2.0000                                                             
     5  1  1.50       -37.8224   6.0000                                                             
     5  2  2.50        -2.6455   4.0000                                                             
     6  0  0.50        -4.9623   1.0000                                                             
     5  3  2.50        -1.3606   0.0000                                                             
   Description                                                                                      
     l       E           TYP  RCUT    TYP  RCUT                                                     
     1    -37.8224449     23  2.500                                                                 
     1      1.3605826     23  2.500                                                                 
     2     -2.6454718     23  2.500                                                                 
     2     -0.6258570     23  2.500                                                                 
     0     -4.9622674     23  2.500                                                                 
     0      4.7531427     23  2.500                                                                 
  local pseudopotential read in
  partial core-charges read in
  partial kinetic energy density read in
  atomic valenz-charges read in
  non local Contribution for L=           1  read in
    real space projection operators read in
  non local Contribution for L=           1  read in
    real space projection operators read in
  non local Contribution for L=           2  read in
    real space projection operators read in
  non local Contribution for L=           2  read in
    real space projection operators read in
  non local Contribution for L=           0  read in
    real space projection operators read in
  non local Contribution for L=           0  read in
    real space projection operators read in
    PAW grid and wavefunctions read in
 
   number of l-projection  operators is LMAX  =           6
   number of lm-projection operators is LMMAX =          18
 
 POTCAR:    PAW_PBE W_sv 04Sep2015                
   SHA256 =  931c2d770f65867ef30f3db3421922900fc0890ebac5c3e12f63b6a2064023d7 W_sv/POTCAR           
   COPYR  = (c) Copyright 04Sep2015 Georg Kresse                                                    
   COPYR  = This file is part of the software VASP. Any use, copying, and all other rights are regul
   COPYR  = If you do not have a valid VASP license, you may not use, copy or distribute this file. 
   VRHFIN =W : 5p6s5d                                                                               
   LEXCH  = PE                                                                                      
   EATOM  =  1865.5791 eV,  137.1162 Ry                                                             
                                                                                                    
   TITEL  = PAW_PBE W_sv 04Sep2015                                                                  
   LULTRA =        F    use ultrasoft PP ?                                                          
   IUNSCR =        1    unscreen: 0-lin 1-nonlin 2-no                                               
   RPACOR =    2.330    partial core radius                                                         
   POMASS =  183.850; ZVAL   =   14.000    mass and valenz                                          
   RCORE  =    2.500    outmost cutoff radius                                                       
   RWIGS  =    2.750; RWIGS  =    1.455    wigner-seitz radius (au A)                               
   ENMAX  =  223.057; ENMIN  =  167.293 eV                                                          
   ICORE  =        3    local potential                                                             
   LCOR   =        T    correct aug charges                                                         
   LPAW   =        T    paw PP                                                                      
   EAUG   =  373.438                                                                                
   DEXC   =    0.000                                                                                
   RMAX   =    2.565    core radius for proj-oper                                                   
   RAUG   =    1.300    factor for augmentation sphere                                              
   RDEP   =    2.539    radius for radial grids                                                     
   RDEPT  =    2.126    core radius for aug-charge                                                  
                                                                                                    
   Atomic configuration                                                                             
   15 entries                                                                                       
     n  l   j            E        occ.                                                              
     1  0  0.50    -69465.5834   2.0000                                                             
     2  0  0.50    -11986.2640   2.0000                                                             
     2  1  1.50    -10479.8613   6.0000                                                             
     3  0  0.50     -2759.0756   2.0000                                                             
     3  1  1.50     -2313.1855   6.0000                                                             
     3  2  2.50     -1801.1183  10.0000                                                             
     4  0  0.50      -567.6789   2.0000                                                             
     4  1  1.50      -421.4692   6.0000                                                             
     4  2  2.50      -236.3471  10.0000                                                             
     4  3  3.50       -31.2665  14.0000                                                             
     5  0  0.50       -77.1084   2.0000                                                             
     6  0  0.50        -5.1438   1.0000                                                             
     5  1  1.50       -41.3856   6.0000                                                             
     5  2  2.50        -3.3185   5.0000                                                             
     5  3  2.50        -1.3606   0.0000                                                             
   Description                                                                                      
     l       E           TYP  RCUT    TYP  RCUT                                                     
     0    -77.1084470     23  2.100                                                                 
     0     -5.1437956     23  2.300                                                                 
     1    -41.3855615     23  2.500                                                                 
     1     -2.7211652     23  2.500                                                                 
     2     -3.3185025     23  2.500                                                                 
     2     -1.5965151     23  2.500                                                                 
     3     -1.3605826     23  2.500                                                                 
  local pseudopotential read in
  partial core-charges read in
  partial kinetic energy density read in
  kinetic energy density of atom read in
  atomic valenz-charges read in
  non local Contribution for L=           0  read in
    real space projection operators read in
  non local Contribution for L=           0  read in
    real space projection operators read in
  non local Contribution for L=           1  read in
    real space projection operators read in
  non local Contribution for L=           1  read in
    real space projection operators read in
  non local Contribution for L=           2  read in
    real space projection operators read in
  non local Contribution for L=           2  read in
    real space projection operators read in
    PAW grid and wavefunctions read in
 
   number of l-projection  operators is LMAX  =           6
   number of lm-projection operators is LMMAX =          18
 
  PAW_PBE Nb_sv 25May2007               :
 energy of atom  1       EATOM=-1555.1913
 kinetic energy error for atom=    0.2155 (will be added to EATOM!!)
  PAW_PBE Mo_sv 02Feb2006               :
 energy of atom  2       EATOM=-1862.2866
 kinetic energy error for atom=    0.1102 (will be added to EATOM!!)
  PAW_PBE Ta_pv 07Sep2000               :
 energy of atom  3       EATOM=-1047.1984
 kinetic energy error for atom=    0.0394 (will be added to EATOM!!)
  PAW_PBE W_sv 04Sep2015                :
 energy of atom  4       EATOM=-1865.5791
 kinetic energy error for atom=    0.0589 (will be added to EATOM!!)
 
 
 POSCAR: Nb-Mo-Ta-W alloy
  positions in direct lattice
  No initial velocities read in
 exchange correlation table for  LEXCH =        8
   RHO(1)=    0.500       N(1)  =     2000
   RHO(2)=  100.500       N(2)  =     4000
 


--------------------------------------------------------------------------------------------------------


 ion  position               nearest neighbor table
   1  0.750  0.250  0.750-   2 2.85   3 2.85   4 2.85   5 2.85   7 2.85   8 2.85  10 2.85  16 2.85
                             9 3.29   9 3.29
   2  0.500  0.500  0.000-   1 2.85   6 2.85   9 2.85  11 2.85  12 2.85  13 2.85  14 2.85  15 2.85
                            10 3.29   8 3.29  10 3.29   8 3.29
   3  0.000  0.000  0.000-   1 2.85   6 2.85   9 2.85  11 2.85  12 2.85  13 2.85  14 2.85  15 2.85
                             8 3.29   8 3.29
   4  0.500  0.000  0.500-   1 2.85   6 2.85   9 2.85  11 2.85  12 2.85  13 2.85  14 2.85  15 2.85
                            10 3.29  10 3.29
   5  0.000  0.500  0.500-   1 2.85   6 2.85   9 2.85  11 2.85  12 2.85  13 2.85  14 2.85  15 2.85
                            10 3.29   8 3.29   8 3.29  10 3.29
   6  0.250  0.750  0.750-   2 2.85   3 2.85   4 2.85   5 2.85   7 2.85   8 2.85  10 2.85  16 2.85
                            14 3.29  15 3.29   9 3.29  14 3.29   9 3.29  15 3.29
   7  0.500  0.000  0.000-   1 2.85   6 2.85   9 2.85  11 2.85  12 2.85  13 2.85  14 2.85  15 2.85

   8  0.000  0.500  0.000-   1 2.85   6 2.85   9 2.85  11 2.85  12 2.85  13 2.85  14 2.85  15 2.85
                             3 3.29   5 3.29   2 3.29   5 3.29   3 3.29   2 3.29
   9  0.250  0.250  0.750-   2 2.85   3 2.85   4 2.85   5 2.85   7 2.85   8 2.85  10 2.85  16 2.85
                             1 3.29  11 3.29   6 3.29  11 3.29   6 3.29   1 3.29
  10  0.500  0.500  0.500-   1 2.85   6 2.85   9 2.85  11 2.85  12 2.85  13 2.85  14 2.85  15 2.85
                             4 3.29   5 3.29   2 3.29   2 3.29   4 3.29   5 3.29
  11  0.250  0.250  0.250-   2 2.85   3 2.85   4 2.85   5 2.85   7 2.85   8 2.85  10 2.85  16 2.85
                            13 3.29  14 3.29   9 3.29   9 3.29  14 3.29  13 3.29
  12  0.750  0.750  0.250-   2 2.85   3 2.85   4 2.85   5 2.85   7 2.85   8 2.85  10 2.85  16 2.85
                            14 3.29  15 3.29  13 3.29  15 3.29  13 3.29  14 3.29
  13  0.750  0.250  0.250-   2 2.85   3 2.85   4 2.85   5 2.85   7 2.85   8 2.85  10 2.85  16 2.85
                            12 3.29  11 3.29  12 3.29  11 3.29
  14  0.250  0.750  0.250-   2 2.85   3 2.85   4 2.85   5 2.85   7 2.85   8 2.85  10 2.85  16 2.85
                            11 3.29  12 3.29   6 3.29   6 3.29  11 3.29  12 3.29
  15  0.750  0.750  0.750-   2 2.85   3 2.85   4 2.85   5 2.85   7 2.85   8 2.85  10 2.85  16 2.85
                            12 3.29   6 3.29  12 3.29   6 3.29
  16  0.000  0.000  0.500-   1 2.85   6 2.85   9 2.85  11 2.85  12 2.85  13 2.85  14 2.85  15 2.85

 
  LATTYP: Found a simple cubic cell.
 ALAT       =     6.5800000000
  
  Lattice vectors:
  
 A1 = (   6.5800000000,   0.0000000000,   0.0000000000)
 A2 = (   0.0000000000,   6.5800000000,   0.0000000000)
 A3 = (   0.0000000000,   0.0000000000,   6.5800000000)


Analysis of symmetry for initial positions (statically):
=====================================================================
 Subroutine PRICEL returns:
 Original cell was already a primitive cell.
 

 Routine SETGRP: Setting up the symmetry group for a 
 simple cubic supercell.


 Subroutine GETGRP returns: Found  1 space group operations
 (whereof  1 operations were pure point group operations)
 out of a pool of 48 trial point group operations.


The static configuration has the point symmetry C_1 .


Analysis of symmetry for dynamics (positions and initial velocities):
=====================================================================
 Subroutine PRICEL returns:
 Original cell was already a primitive cell.
 

 Routine SETGRP: Setting up the symmetry group for a 
 simple cubic supercell.


 Subroutine GETGRP returns: Found  1 space group operations
 (whereof  1 operations were pure point group operations)
 out of a pool of 48 trial point group operations.


The dynamic configuration has the point symmetry C_1 .


 Subroutine INISYM returns: Found  1 space group operations
 (whereof  1 operations are pure point group operations),
 and found     1 'primitive' translations


----------------------------------------------------------------------------------------

                                     Primitive cell                                     

  volume of cell :     284.8903

  direct lattice vectors                    reciprocal lattice vectors
     6.580000000  0.000000000  0.000000000     0.151975684  0.000000000  0.000000000
     0.000000000  6.580000000  0.000000000     0.000000000  0.151975684  0.000000000
     0.000000000  0.000000000  6.580000000     0.000000000  0.000000000  0.151975684

  length of vectors
     6.580000000  6.580000000  6.580000000     0.151975684  0.151975684  0.151975684

  position of ions in fractional coordinates (direct lattice)
     0.750000000  0.250000000  0.750000000
     0.500000000  0.500000000  0.000000000
     0.000000000  0.000000000  0.000000000
     0.500000000  0.000000000  0.500000000
     0.000000000  0.500000000  0.500000000
     0.250000000  0.750000000  0.750000000
     0.500000000  0.000000000  0.000000000
     0.000000000  0.500000000  0.000000000
     0.250000000  0.250000000  0.750000000
     0.500000000  0.500000000  0.500000000
     0.250000000  0.250000000  0.250000000
     0.750000000  0.750000000  0.250000000
     0.750000000  0.250000000  0.250000000
     0.250000000  0.750000000  0.250000000
     0.750000000  0.750000000  0.750000000
     0.000000000  0.000000000  0.500000000

  ion indices of the primitive-cell ions
   primitive index   ion index
                 1           1
                 2           2
                 3           3
                 4           4
                 5           5
                 6           6
                 7           7
                 8           8
                 9           9
                10          10
                11          11
                12          12
                13          13
                14          14
                15          15
                16          16

----------------------------------------------------------------------------------------

 
 
 KPOINTS: K-Spacing Value to Generate K-Mesh: 0.03

Automatic generation of k-mesh.
 Grid dimensions read from file:
 generate k-points for:    5    5    5

 Generating k-lattice:

  Cartesian coordinates                     Fractional coordinates (reciprocal lattice)
     0.030395137  0.000000000  0.000000000     0.200000000  0.000000000  0.000000000
     0.000000000  0.030395137  0.000000000     0.000000000  0.200000000  0.000000000
     0.000000000  0.000000000  0.030395137     0.000000000  0.000000000  0.200000000

  Length of vectors
     0.030395137  0.030395137  0.030395137

  Shift w.r.t. Gamma in fractional coordinates (k-lattice)
     0.000000000  0.000000000  0.000000000

 
 Subroutine IBZKPT returns following result:
 ===========================================
 
 Found     63 irreducible k-points:
 
 Following reciprocal coordinates:
            Coordinates               Weight
  0.000000  0.000000  0.000000      1.000000
  0.200000  0.000000  0.000000      2.000000
  0.000000  0.200000  0.000000      2.000000
  0.000000  0.000000  0.200000      2.000000
  0.400000  0.000000  0.000000      2.000000
  0.000000  0.400000  0.000000      2.000000
  0.000000  0.000000  0.400000      2.000000
  0.200000  0.200000  0.000000      2.000000
  0.000000  0.200000  0.200000      2.000000
  0.200000  0.000000  0.200000      2.000000
 -0.200000  0.200000  0.000000      2.000000
 -0.200000  0.000000  0.200000      2.000000
  0.000000 -0.200000  0.200000      2.000000
  0.400000  0.200000  0.000000      2.000000
  0.000000  0.400000  0.200000      2.000000
  0.200000  0.000000  0.400000      2.000000
 -0.200000  0.400000  0.000000      2.000000
 -0.400000  0.000000  0.200000      2.000000
  0.000000  0.200000  0.400000      2.000000
  0.000000 -0.400000  0.200000      2.000000
 -0.200000  0.000000  0.400000      2.000000
  0.400000  0.000000  0.200000      2.000000
  0.000000 -0.200000  0.400000      2.000000
  0.400000 -0.200000  0.000000      2.000000
  0.200000  0.400000  0.000000      2.000000
  0.400000  0.400000  0.000000      2.000000
  0.000000  0.400000  0.400000      2.000000
  0.400000  0.000000  0.400000      2.000000
 -0.400000  0.400000  0.000000      2.000000
 -0.400000  0.000000  0.400000      2.000000
  0.000000 -0.400000  0.400000      2.000000
  0.200000  0.200000  0.200000      2.000000
 -0.200000  0.200000  0.200000      2.000000
 -0.200000 -0.200000  0.200000      2.000000
  0.200000 -0.200000  0.200000      2.000000
  0.400000  0.200000  0.200000      2.000000
  0.200000  0.400000  0.200000      2.000000
  0.200000  0.200000  0.400000      2.000000
 -0.200000  0.400000  0.200000      2.000000
 -0.400000  0.200000  0.200000      2.000000
 -0.200000  0.200000  0.400000      2.000000
 -0.400000 -0.200000  0.200000      2.000000
 -0.200000 -0.400000  0.200000      2.000000
 -0.200000 -0.200000  0.400000      2.000000
  0.200000 -0.400000  0.200000      2.000000
  0.400000 -0.200000  0.200000      2.000000
  0.200000 -0.200000  0.400000      2.000000
  0.400000  0.400000  0.200000      2.000000
  0.200000  0.400000  0.400000      2.000000
  0.400000  0.200000  0.400000      2.000000
 -0.400000  0.400000  0.200000      2.000000
 -0.400000  0.200000  0.400000      2.000000
 -0.200000  0.400000  0.400000      2.000000
 -0.400000 -0.400000  0.200000      2.000000
 -0.200000 -0.400000  0.400000      2.000000
 -0.400000 -0.200000  0.400000      2.000000
  0.400000 -0.400000  0.200000      2.000000
  0.400000 -0.200000  0.400000      2.000000
  0.200000 -0.400000  0.400000      2.000000
  0.400000  0.400000  0.400000      2.000000
 -0.400000  0.400000  0.400000      2.000000
 -0.400000 -0.400000  0.400000      2.000000
  0.400000 -0.400000  0.400000      2.000000
 
 Following cartesian coordinates:
            Coordinates               Weight
  0.000000  0.000000  0.000000      1.000000
  0.030395  0.000000  0.000000      2.000000
  0.000000  0.030395  0.000000      2.000000
  0.000000  0.000000  0.030395      2.000000
  0.060790  0.000000  0.000000      2.000000
  0.000000  0.060790  0.000000      2.000000
  0.000000  0.000000  0.060790      2.000000
  0.030395  0.030395  0.000000      2.000000
  0.000000  0.030395  0.030395      2.000000
  0.030395  0.000000  0.030395      2.000000
 -0.030395  0.030395  0.000000      2.000000
 -0.030395  0.000000  0.030395      2.000000
  0.000000 -0.030395  0.030395      2.000000
  0.060790  0.030395  0.000000      2.000000
  0.000000  0.060790  0.030395      2.000000
  0.030395  0.000000  0.060790      2.000000
 -0.030395  0.060790  0.000000      2.000000
 -0.060790  0.000000  0.030395      2.000000
  0.000000  0.030395  0.060790      2.000000
  0.000000 -0.060790  0.030395      2.000000
 -0.030395  0.000000  0.060790      2.000000
  0.060790  0.000000  0.030395      2.000000
  0.000000 -0.030395  0.060790      2.000000
  0.060790 -0.030395  0.000000      2.000000
  0.030395  0.060790  0.000000      2.000000
  0.060790  0.060790  0.000000      2.000000
  0.000000  0.060790  0.060790      2.000000
  0.060790  0.000000  0.060790      2.000000
 -0.060790  0.060790  0.000000      2.000000
 -0.060790  0.000000  0.060790      2.000000
  0.000000 -0.060790  0.060790      2.000000
  0.030395  0.030395  0.030395      2.000000
 -0.030395  0.030395  0.030395      2.000000
 -0.030395 -0.030395  0.030395      2.000000
  0.030395 -0.030395  0.030395      2.000000
  0.060790  0.030395  0.030395      2.000000
  0.030395  0.060790  0.030395      2.000000
  0.030395  0.030395  0.060790      2.000000
 -0.030395  0.060790  0.030395      2.000000
 -0.060790  0.030395  0.030395      2.000000
 -0.030395  0.030395  0.060790      2.000000
 -0.060790 -0.030395  0.030395      2.000000
 -0.030395 -0.060790  0.030395      2.000000
 -0.030395 -0.030395  0.060790      2.000000
  0.030395 -0.060790  0.030395      2.000000
  0.060790 -0.030395  0.030395      2.000000
  0.030395 -0.030395  0.060790      2.000000
  0.060790  0.060790  0.030395      2.000000
  0.030395  0.060790  0.060790      2.000000
  0.060790  0.030395  0.060790      2.000000
 -0.060790  0.060790  0.030395      2.000000
 -0.060790  0.030395  0.060790      2.000000
 -0.030395  0.060790  0.060790      2.000000
 -0.060790 -0.060790  0.030395      2.000000
 -0.030395 -0.060790  0.060790      2.000000
 -0.060790 -0.030395  0.060790      2.000000
  0.060790 -0.060790  0.030395      2.000000
  0.060790 -0.030395  0.060790      2.000000
  0.030395 -0.060790  0.060790      2.000000
  0.060790  0.060790  0.060790      2.000000
 -0.060790  0.060790  0.060790      2.000000
 -0.060790 -0.060790  0.060790      2.000000
  0.060790 -0.060790  0.060790      2.000000
 


--------------------------------------------------------------------------------------------------------




 Dimension of arrays:
   k-points           NKPTS =     63   k-points in BZ     NKDIM =     63   number of bands    NBANDS=    128
   number of dos      NEDOS =    301   number of ions     NIONS =     16
   non local maximal  LDIM  =      6   non local SUM 2l+1 LMDIM =     18
   total plane-waves  NPLWV =  46656
   max r-space proj   IRMAX =      1   max aug-charges    IRDMAX=   9546
   dimension x,y,z NGX =    36 NGY =   36 NGZ =   36
   dimension x,y,z NGXF=    72 NGYF=   72 NGZF=   72
   support grid    NGXF=    72 NGYF=   72 NGZF=   72
   ions per type =               5   2   3   6
   NGX,Y,Z   is equivalent  to a cutoff of   9.10,  9.10,  9.10 a.u.
   NGXF,Y,Z  is equivalent  to a cutoff of  18.19, 18.19, 18.19 a.u.

 SYSTEM =  unknown system                          
 POSCAR =  Nb-Mo-Ta-W alloy                        

 Startparameter for this run:
   NWRITE =      2    write-flag & timer
   PREC   = accura    normal or accurate (medium, high low for compatibility)
   ISTART =      0    job   : 0-new  1-cont  2-samecut
   ICHARG =      2    charge: 1-file 2-atom 10-const
   ISPIN  =      1    spin polarized calculation?
   LNONCOLLINEAR =      F non collinear calculations
   LSORBIT =      F    spin-orbit coupling
   INIWAV =      1    electr: 0-lowe 1-rand  2-diag
   LASPH  =      F    aspherical Exc in radial PAW
 Electronic Relaxation 1
   ENCUT  =  250.0 eV  18.37 Ry    4.29 a.u.   8.48  8.48  8.48*2*pi/ulx,y,z
   ENINI  =  250.0     initial cutoff
   ENAUG  =  455.7 eV  augmentation charge cutoff
   NELM   =     80;   NELMIN=  2; NELMDL= -5     # of ELM steps 
   EDIFF  = 0.1E-07   stopping-criterion for ELM
   LREAL  =      F    real-space projection
   NLSPLINE    = F    spline interpolate recip. space projectors
   LCOMPAT=      F    compatible to vasp.4.4
   GGA_COMPAT  = T    GGA compatible to vasp.4.4-vasp.4.6
   LMAXPAW     = -100 max onsite density
   LMAXMIX     =    2 max onsite mixed and CHGCAR
   VOSKOWN=      0    Vosko Wilk Nusair interpolation
   ROPT   =    0.00000   0.00000   0.00000   0.00000
 Ionic relaxation
   EDIFFG = -.1E-01   stopping-criterion for IOM
   NSW    =      0    number of steps for IOM
   NBLOCK =      1;   KBLOCK =      1    inner block; outer block 
   IBRION =     -1    ionic relax: 0-MD 1-quasi-New 2-CG
   NFREE  =      0    steps in history (QN), initial steepest desc. (CG)
   ISIF   =      2    stress and relaxation
   IWAVPR =     10    prediction:  0-non 1-charg 2-wave 3-comb
   ISYM   =      2    0-nonsym 1-usesym 2-fastsym
   LCORR  =      T    Harris-Foulkes like correction to forces

   POTIM  = 0.5000    time-step for ionic-motion
   TEIN   =    0.0    initial temperature
   TEBEG  =    0.0;   TEEND  =   0.0 temperature during run
   SMASS  =  -3.00    Nose mass-parameter (am)
   estimated Nose-frequenzy (Omega)   =  0.10E-29 period in steps = 0.13E+47 mass=  -0.989E-27a.u.
   SCALEE = 1.0000    scale energy and forces
   NPACO  =    256;   APACO  = 10.0  distance and # of slots for P.C.
   PSTRESS=    0.0 pullay stress

  Mass of Ions in am
   POMASS =  92.91 95.94180.95183.85
  Ionic Valenz
   ZVAL   =  13.00 14.00 11.00 14.00
  Atomic Wigner-Seitz radii
   RWIGS  =  -1.00 -1.00 -1.00 -1.00
  virtual crystal weights 
   VCA    =   1.00  1.00  1.00  1.00
   NELECT =     210.0000    total number of electrons
   NUPDOWN=      -1.0000    fix difference up-down

 DOS related values:
   EMIN   =  10.00;   EMAX   =-10.00  energy-range for DOS
   EFERMI =   0.00
   ISMEAR =     0;   SIGMA  =   0.02  broadening in eV -4-tet -1-fermi 0-gaus

 Electronic relaxation 2 (details)
   IALGO  =     38    algorithm
   LDIAG  =      T    sub-space diagonalisation (order eigenvalues)
   LSUBROT=      F    optimize rotation matrix (better conditioning)
   TURBO    =      0    0=normal 1=particle mesh
   IRESTART =      0    0=no restart 2=restart with 2 vectors
   NREBOOT  =      0    no. of reboots
   NMIN     =      0    reboot dimension
   EREF     =   0.00    reference energy to select bands
   IMIX   =      4    mixing-type and parameters
     AMIX     =   0.40;   BMIX     =  1.00
     AMIX_MAG =   1.60;   BMIX_MAG =  1.00
     AMIN     =   0.10
     WC   =   100.;   INIMIX=   1;  MIXPRE=   1;  MAXMIX= -45

 Intra band minimization:
   WEIMIN = 0.0000     energy-eigenvalue tresh-hold
   EBREAK =  0.20E-10  absolut break condition
   DEPER  =   0.30     relativ break condition  

   TIME   =   0.40     timestep for ELM

  volume/ion in A,a.u.               =      17.81       120.16
  Fermi-wavevector in a.u.,A,eV,Ry     =   1.478843  2.794608 29.755619  2.186976
  Thomas-Fermi vector in A             =   2.593074
 
 Write flags
   LWAVE        =      F    write WAVECAR
   LDOWNSAMPLE  =      F    k-point downsampling of WAVECAR
   LCHARG       =      F    write CHGCAR
   LVTOT        =      F    write LOCPOT, total local potential
   LVHAR        =      F    write LOCPOT, Hartree potential only
   LELF         =      F    write electronic localiz. function (ELF)
   LORBIT       =      0    0 simple, 1 ext, 2 COOP (PROOUT), +10 PAW based schemes


 Dipole corrections
   LMONO  =      F    monopole corrections only (constant potential shift)
   LDIPOL =      F    correct potential (dipole corrections)
   IDIPOL =      0    1-x, 2-y, 3-z, 4-all directions 
   EPSILON=  1.0000000 bulk dielectric constant

 Core level calculations are selected ICORELEVEL =  1
 Exchange correlation treatment:
   GGA     =    PE    GGA type
   LEXCH   =     8    internal setting for exchange type
   LIBXC   =     F    Libxc                    
   VOSKOWN =     0    Vosko Wilk Nusair interpolation
   LHFCALC =     F    Hartree Fock is set to
   LHFONE  =     F    Hartree Fock one center treatment
   AEXX    =    0.0000 exact exchange contribution

 Linear response parameters
   LEPSILON=     F    determine dielectric tensor
   LRPA    =     F    only Hartree local field effects (RPA)
   LNABLA  =     F    use nabla operator in PAW spheres
   LVEL    =     F    velocity operator in full k-point grid
   CSHIFT  =0.1000    complex shift for real part using Kramers Kronig
   OMEGAMAX=  -1.0    maximum frequency
   DEG_THRESHOLD= 0.2000000E-02 threshold for treating states as degnerate
   RTIME   =   -0.100 relaxation time in fs
  (WPLASMAI=    0.000 imaginary part of plasma frequency in eV, 0.658/RTIME)
   DFIELD  = 0.0000000 0.0000000 0.0000000 field for delta impulse in time
 
  Optional k-point grid parameters
   LKPOINTS_OPT  =     F    use optional k-point grid
   KPOINTS_OPT_MODE=     1    mode for optional k-point grid
 
 Orbital magnetization related:
   ORBITALMAG=     F  switch on orbital magnetization
   LCHIMAG   =     F  perturbation theory with respect to B field
   DQ        =  0.001000  dq finite difference perturbation B field
   LLRAUG    =     F  two centre corrections for induced B field



--------------------------------------------------------------------------------------------------------


 Static calculation
 charge density and potential will be updated during run
 non-spin polarized calculation
 Variant of blocked Davidson
 Davidson routine will perform the subspace rotation
 perform sub-space diagonalisation
    after iterative eigenvector-optimisation
 modified Broyden-mixing scheme, WC =      100.0
 initial mixing is a Kerker type mixing with AMIX =  0.4000 and BMIX =      1.0000
 Hartree-type preconditioning will be used
 using additional bands           23
 reciprocal scheme for non local part
 use partial core corrections
 calculate Harris-corrections to forces 
   (improved forces if not selfconsistent)
 use gradient corrections 
 use of overlap-Matrix (Vanderbilt PP)
 Gauss-broadening in eV      SIGMA  =   0.02


--------------------------------------------------------------------------------------------------------


  energy-cutoff  :      250.00
  volume of cell :      284.89
      direct lattice vectors                 reciprocal lattice vectors
     6.580000000  0.000000000  0.000000000     0.151975684  0.000000000  0.000000000
     0.000000000  6.580000000  0.000000000     0.000000000  0.151975684  0.000000000
     0.000000000  0.000000000  6.580000000     0.000000000  0.000000000  0.151975684

  length of vectors
     6.580000000  6.580000000  6.580000000     0.151975684  0.151975684  0.151975684


 
 k-points in units of 2pi/SCALE and weight: K-Spacing Value to Generate K-Mesh: 0.03
   0.00000000  0.00000000  0.00000000       0.008
   0.03039514  0.00000000  0.00000000       0.016
   0.00000000  0.03039514  0.00000000       0.016
   0.00000000  0.00000000  0.03039514       0.016
   0.06079027  0.00000000  0.00000000       0.016
   0.00000000  0.06079027  0.00000000       0.016
   0.00000000  0.00000000  0.06079027       0.016
   0.03039514  0.03039514  0.00000000       0.016
   0.00000000  0.03039514  0.03039514       0.016
   0.03039514  0.00000000  0.03039514       0.016
  -0.03039514  0.03039514  0.00000000       0.016
  -0.03039514  0.00000000  0.03039514       0.016
   0.00000000 -0.03039514  0.03039514       0.016
   0.06079027  0.03039514  0.00000000       0.016
   0.00000000  0.06079027  0.03039514       0.016
   0.03039514  0.00000000  0.06079027       0.016
  -0.03039514  0.06079027  0.00000000       0.016
  -0.06079027  0.00000000  0.03039514       0.016
   0.00000000  0.03039514  0.06079027       0.016
   0.00000000 -0.06079027  0.03039514       0.016
  -0.03039514  0.00000000  0.06079027       0.016
   0.06079027  0.00000000  0.03039514       0.016
   0.00000000 -0.03039514  0.06079027       0.016
   0.06079027 -0.03039514  0.00000000       0.016
   0.03039514  0.06079027  0.00000000       0.016
   0.06079027  0.06079027  0.00000000       0.016
   0.00000000  0.06079027  0.06079027       0.016
   0.06079027  0.00000000  0.06079027       0.016
  -0.06079027  0.06079027  0.00000000       0.016
  -0.06079027  0.00000000  0.06079027       0.016
   0.00000000 -0.06079027  0.06079027       0.016
   0.03039514  0.03039514  0.03039514       0.016
  -0.03039514  0.03039514  0.03039514       0.016
  -0.03039514 -0.03039514  0.03039514       0.016
   0.03039514 -0.03039514  0.03039514       0.016
   0.06079027  0.03039514  0.03039514       0.016
   0.03039514  0.06079027  0.03039514       0.016
   0.03039514  0.03039514  0.06079027       0.016
  -0.03039514  0.06079027  0.03039514       0.016
  -0.06079027  0.03039514  0.03039514       0.016
  -0.03039514  0.03039514  0.06079027       0.016
  -0.06079027 -0.03039514  0.03039514       0.016
  -0.03039514 -0.06079027  0.03039514       0.016
  -0.03039514 -0.03039514  0.06079027       0.016
   0.03039514 -0.06079027  0.03039514       0.016
   0.06079027 -0.03039514  0.03039514       0.016
   0.03039514 -0.03039514  0.06079027       0.016
   0.06079027  0.06079027  0.03039514       0.016
   0.03039514  0.06079027  0.06079027       0.016
   0.06079027  0.03039514  0.06079027       0.016
  -0.06079027  0.06079027  0.03039514       0.016
  -0.06079027  0.03039514  0.06079027       0.016
  -0.03039514  0.06079027  0.06079027       0.016
  -0.06079027 -0.06079027  0.03039514       0.016
  -0.03039514 -0.06079027  0.06079027       0.016
  -0.06079027 -0.03039514  0.06079027       0.016
   0.06079027 -0.06079027  0.03039514       0.016
   0.06079027 -0.03039514  0.06079027       0.016
   0.03039514 -0.06079027  0.06079027       0.016
   0.06079027  0.06079027  0.06079027       0.016
  -0.06079027  0.06079027  0.06079027       0.016
  -0.06079027 -0.06079027  0.06079027       0.016
   0.06079027 -0.06079027  0.06079027       0.016
 
 k-points in reciprocal lattice and weights: K-Spacing Value to Generate K-Mesh: 0.03
   0.00000000  0.00000000  0.00000000       0.008
   0.20000000  0.00000000  0.00000000       0.016
   0.00000000  0.20000000  0.00000000       0.016
   0.00000000  0.00000000  0.20000000       0.016
   0.40000000  0.00000000  0.00000000       0.016
   0.00000000  0.40000000  0.00000000       0.016
   0.00000000  0.00000000  0.40000000       0.016
   0.20000000  0.20000000  0.00000000       0.016
   0.00000000  0.20000000  0.20000000       0.016
   0.20000000  0.00000000  0.20000000       0.016
  -0.20000000  0.20000000  0.00000000       0.016
  -0.20000000  0.00000000  0.20000000       0.016
   0.00000000 -0.20000000  0.20000000       0.016
   0.40000000  0.20000000  0.00000000       0.016
   0.00000000  0.40000000  0.20000000       0.016
   0.20000000  0.00000000  0.40000000       0.016
  -0.20000000  0.40000000  0.00000000       0.016
  -0.40000000  0.00000000  0.20000000       0.016
   0.00000000  0.20000000  0.40000000       0.016
   0.00000000 -0.40000000  0.20000000       0.016
  -0.20000000  0.00000000  0.40000000       0.016
   0.40000000  0.00000000  0.20000000       0.016
   0.00000000 -0.20000000  0.40000000       0.016
   0.40000000 -0.20000000  0.00000000       0.016
   0.20000000  0.40000000  0.00000000       0.016
   0.40000000  0.40000000  0.00000000       0.016
   0.00000000  0.40000000  0.40000000       0.016
   0.40000000  0.00000000  0.40000000       0.016
  -0.40000000  0.40000000  0.00000000       0.016
  -0.40000000  0.00000000  0.40000000       0.016
   0.00000000 -0.40000000  0.40000000       0.016
   0.20000000  0.20000000  0.20000000       0.016
  -0.20000000  0.20000000  0.20000000       0.016
  -0.20000000 -0.20000000  0.20000000       0.016
   0.20000000 -0.20000000  0.20000000       0.016
   0.40000000  0.20000000  0.20000000       0.016
   0.20000000  0.40000000  0.20000000       0.016
   0.20000000  0.20000000  0.40000000       0.016
  -0.20000000  0.40000000  0.20000000       0.016
  -0.40000000  0.20000000  0.20000000       0.016
  -0.20000000  0.20000000  0.40000000       0.016
  -0.40000000 -0.20000000  0.20000000       0.016
  -0.20000000 -0.40000000  0.20000000       0.016
  -0.20000000 -0.20000000  0.40000000       0.016
   0.20000000 -0.40000000  0.20000000       0.016
   0.40000000 -0.20000000  0.20000000       0.016
   0.20000000 -0.20000000  0.40000000       0.016
   0.40000000  0.40000000  0.20000000       0.016
   0.20000000  0.40000000  0.40000000       0.016
   0.40000000  0.20000000  0.40000000       0.016
  -0.40000000  0.40000000  0.20000000       0.016
  -0.40000000  0.20000000  0.40000000       0.016
  -0.20000000  0.40000000  0.40000000       0.016
  -0.40000000 -0.40000000  0.20000000       0.016
  -0.20000000 -0.40000000  0.40000000       0.016
  -0.40000000 -0.20000000  0.40000000       0.016
   0.40000000 -0.40000000  0.20000000       0.016
   0.40000000 -0.20000000  0.40000000       0.016
   0.20000000 -0.40000000  0.40000000       0.016
   0.40000000  0.40000000  0.40000000       0.016
  -0.40000000  0.40000000  0.40000000       0.016
  -0.40000000 -0.40000000  0.40000000       0.016
   0.40000000 -0.40000000  0.40000000       0.016
 
 position of ions in fractional coordinates (direct lattice) 
   0.75000000  0.25000000  0.75000000
   0.50000000  0.50000000  0.00000000
   0.00000000  0.00000000  0.00000000
   0.50000000  0.00000000  0.50000000
   0.00000000  0.50000000  0.50000000
   0.25000000  0.75000000  0.75000000
   0.50000000  0.00000000  0.00000000
   0.00000000  0.50000000  0.00000000
   0.25000000  0.25000000  0.75000000
   0.50000000  0.50000000  0.50000000
   0.25000000  0.25000000  0.25000000
   0.75000000  0.75000000  0.25000000
   0.75000000  0.25000000  0.25000000
   0.25000000  0.75000000  0.25000000
   0.75000000  0.75000000  0.75000000
   0.00000000  0.00000000  0.50000000
 
 position of ions in cartesian coordinates  (Angst):
   4.93500000  1.64500000  4.93500000
   3.29000000  3.29000000  0.00000000
   0.00000000  0.00000000  0.00000000
   3.29000000  0.00000000  3.29000000
   0.00000000  3.29000000  3.29000000
   1.64500000  4.93500000  4.93500000
   3.29000000  0.00000000  0.00000000
   0.00000000  3.29000000  0.00000000
   1.64500000  1.64500000  4.93500000
   3.29000000  3.29000000  3.29000000
   1.64500000  1.64500000  1.64500000
   4.93500000  4.93500000  1.64500000
   4.93500000  1.64500000  1.64500000
   1.64500000  4.93500000  1.64500000
   4.93500000  4.93500000  4.93500000
   0.00000000  0.00000000  3.29000000
 


--------------------------------------------------------------------------------------------------------


 k-point   1 :   0.0000 0.0000 0.0000  plane waves:    2517
 k-point   2 :   0.2000 0.0000 0.0000  plane waves:    2545
 k-point   3 :   0.0000 0.2000 0.0000  plane waves:    2545
 k-point   4 :   0.0000 0.0000 0.2000  plane waves:    2545
 k-point   5 :   0.4000 0.0000 0.0000  plane waves:    2569
 k-point   6 :   0.0000 0.4000 0.0000  plane waves:    2569
 k-point   7 :   0.0000 0.0000 0.4000  plane waves:    2569
 k-point   8 :   0.2000 0.2000 0.0000  plane waves:    2562
 k-point   9 :   0.0000 0.2000 0.2000  plane waves:    2562
 k-point  10 :   0.2000 0.0000 0.2000  plane waves:    2562
 k-point  11 :  -0.2000 0.2000 0.0000  plane waves:    2562
 k-point  12 :  -0.2000 0.0000 0.2000  plane waves:    2562
 k-point  13 :   0.0000-0.2000 0.2000  plane waves:    2562
 k-point  14 :   0.4000 0.2000 0.0000  plane waves:    2566
 k-point  15 :   0.0000 0.4000 0.2000  plane waves:    2566
 k-point  16 :   0.2000 0.0000 0.4000  plane waves:    2566
 k-point  17 :  -0.2000 0.4000 0.0000  plane waves:    2566
 k-point  18 :  -0.4000 0.0000 0.2000  plane waves:    2566
 k-point  19 :   0.0000 0.2000 0.4000  plane waves:    2566
 k-point  20 :   0.0000-0.4000 0.2000  plane waves:    2566
 k-point  21 :  -0.2000 0.0000 0.4000  plane waves:    2566
 k-point  22 :   0.4000 0.0000 0.2000  plane waves:    2566
 k-point  23 :   0.0000-0.2000 0.4000  plane waves:    2566
 k-point  24 :   0.4000-0.2000 0.0000  plane waves:    2566
 k-point  25 :   0.2000 0.4000 0.0000  plane waves:    2566
 k-point  26 :   0.4000 0.4000 0.0000  plane waves:    2570
 k-point  27 :   0.0000 0.4000 0.4000  plane waves:    2570
 k-point  28 :   0.4000 0.0000 0.4000  plane waves:    2570
 k-point  29 :  -0.4000 0.4000 0.0000  plane waves:    2570
 k-point  30 :  -0.4000 0.0000 0.4000  plane waves:    2570
 k-point  31 :   0.0000-0.4000 0.4000  plane waves:    2570
 k-point  32 :   0.2000 0.2000 0.2000  plane waves:    2572
 k-point  33 :  -0.2000 0.2000 0.2000  plane waves:    2572
 k-point  34 :  -0.2000-0.2000 0.2000  plane waves:    2572
 k-point  35 :   0.2000-0.2000 0.2000  plane waves:    2572
 k-point  36 :   0.4000 0.2000 0.2000  plane waves:    2546
 k-point  37 :   0.2000 0.4000 0.2000  plane waves:    2546
 k-point  38 :   0.2000 0.2000 0.4000  plane waves:    2546
 k-point  39 :  -0.2000 0.4000 0.2000  plane waves:    2546
 k-point  40 :  -0.4000 0.2000 0.2000  plane waves:    2546
 k-point  41 :  -0.2000 0.2000 0.4000  plane waves:    2546
 k-point  42 :  -0.4000-0.2000 0.2000  plane waves:    2546
 k-point  43 :  -0.2000-0.4000 0.2000  plane waves:    2546
 k-point  44 :  -0.2000-0.2000 0.4000  plane waves:    2546
 k-point  45 :   0.2000-0.4000 0.2000  plane waves:    2546
 k-point  46 :   0.4000-0.2000 0.2000  plane waves:    2546
 k-point  47 :   0.2000-0.2000 0.4000  plane waves:    2546
 k-point  48 :   0.4000 0.4000 0.2000  plane waves:    2549
 k-point  49 :   0.2000 0.4000 0.4000  plane waves:    2549
 k-point  50 :   0.4000 0.2000 0.4000  plane waves:    2549
 k-point  51 :  -0.4000 0.4000 0.2000  plane waves:    2549
 k-point  52 :  -0.4000 0.2000 0.4000  plane waves:    2549
 k-point  53 :  -0.2000 0.4000 0.4000  plane waves:    2549
 k-point  54 :  -0.4000-0.4000 0.2000  plane waves:    2549
 k-point  55 :  -0.2000-0.4000 0.4000  plane waves:    2549
 k-point  56 :  -0.4000-0.2000 0.4000  plane waves:    2549
 k-point  57 :   0.4000-0.4000 0.2000  plane waves:    2549
 k-point  58 :   0.4000-0.2000 0.4000  plane waves:    2549
 k-point  59 :   0.2000-0.4000 0.4000  plane waves:    2549
 k-point  60 :   0.4000 0.4000 0.4000  plane waves:    2533
 k-point  61 :  -0.4000 0.4000 0.4000  plane waves:    2533
 k-point  62 :  -0.4000-0.4000 0.4000  plane waves:    2533
 k-point  63 :   0.4000-0.4000 0.4000  plane waves:    2533

 maximum and minimum number of plane-waves per node :       235      194

 maximum number of plane-waves:      2572
 maximum index in each direction: 
   IXMAX=    8   IYMAX=    8   IZMAX=    8
   IXMIN=   -8   IYMIN=   -8   IZMIN=   -8


 parallel 3D FFT for wavefunctions:
    minimum data exchange during FFTs selected (reduces bandwidth)
 parallel 3D FFT for charge:
    minimum data exchange during FFTs selected (reduces bandwidth)


 total amount of memory used by VASP MPI-rank0    48253. kBytes
=======================================================================

   base      :      30000. kBytes
   nonl-proj :       8332. kBytes
   fftplans  :        456. kBytes
   grid      :        919. kBytes
   one-center:         31. kBytes
   wavefun   :       8515. kBytes
 
     INWAV:  cpu time      0.0000: real time      0.0001
 Broyden mixing: mesh for mixing (old mesh)
   NGX = 17   NGY = 17   NGZ = 17
  (NGX  = 72   NGY  = 72   NGZ  = 72)
  gives a total of   4913 points

 initial charge density was supplied:
 charge density of overlapping atoms calculated
 number of electron     210.0000000 magnetization 
 keeping initial charge density in first step


--------------------------------------------------------------------------------------------------------


 Maximum index for augmentation-charges          517 (set IRDMAX)


--------------------------------------------------------------------------------------------------------


 First call to EWALD:  gamma=   0.269
 Maximum number of real-space cells 3x 3x 3
 Maximum number of reciprocal cells 3x 3x 3

    FEWALD:  cpu time      0.0012: real time      0.0012


--------------------------------------- Iteration      1(   1)  ---------------------------------------


    POTLOK:  cpu time      0.0090: real time      0.2325
    SETDIJ:  cpu time      0.0024: real time      0.0026
     EDDAV:  cpu time      3.0618: real time      3.0751
       DOS:  cpu time      0.0048: real time      0.0048
    --------------------------------------------
      LOOP:  cpu time      3.0780: real time      3.3150

 eigenvalue-minimisations  : 16376
 total energy-change (2. order) : 0.2031389E+04  (-0.8110594E+04)
 number of electron     210.0000000 magnetization 
 augmentation part      210.0000000 magnetization 

 Free energy of the ion-electron system (eV)
  ---------------------------------------------------
  alpha Z        PSCENC =      1834.20689785
  Ewald energy   TEWEN  =    -22004.62035786
  -Hartree energ DENC   =     -4095.88170025
  -exchange      EXHF   =         0.00000000
  -V(xc)+E(xc)   XCENC  =       831.75118040
  PAW double counting   =     20408.24726606   -20091.36597172
  entropy T*S    EENTRO =        -0.00113892
  eigenvalues    EBANDS =      -684.77642724
  atomic energy  EATOM  =     25833.82965158
  Solvation  Ediel_sol  =         0.00000000
  ---------------------------------------------------
  free energy    TOTEN  =      2031.38939989 eV

  energy without entropy =     2031.39053882  energy(sigma->0) =     2031.38996936


--------------------------------------------------------------------------------------------------------




--------------------------------------- Iteration      1(   2)  ---------------------------------------


     EDDAV:  cpu time      3.1750: real time      3.1910
       DOS:  cpu time      0.0044: real time      0.0044
    --------------------------------------------
      LOOP:  cpu time      3.1793: real time      3.1954

 eigenvalue-minimisations  : 16464
 total energy-change (2. order) :-0.2037199E+04  (-0.1974503E+04)
 number of electron     210.0000000 magnetization 
 augmentation part      210.0000000 magnetization 

 Free energy of the ion-electron system (eV)
  ---------------------------------------------------
  alpha Z        PSCENC =      1834.20689785
  Ewald energy   TEWEN  =    -22004.62035786
  -Hartree energ DENC   =     -4095.88170025
  -exchange      EXHF   =         0.00000000
  -V(xc)+E(xc)   XCENC  =       831.75118040
  PAW double counting   =     20408.24726606   -20091.36597172
  entropy T*S    EENTRO =        -0.00166497
  eigenvalues    EBANDS =     -2721.97526468
  atomic energy  EATOM  =     25833.82965158
  Solvation  Ediel_sol  =         0.00000000
  ---------------------------------------------------
  free energy    TOTEN  =        -5.80996359 eV

  energy without entropy =       -5.80829862  energy(sigma->0) =       -5.80913111


--------------------------------------------------------------------------------------------------------




--------------------------------------- Iteration      1(   3)  ---------------------------------------


     EDDAV:  cpu time      4.0221: real time      4.0385
       DOS:  cpu time      0.0045: real time      0.0045
    --------------------------------------------
      LOOP:  cpu time      4.0265: real time      4.0430

 eigenvalue-minimisations  : 23912
 total energy-change (2. order) :-0.1777338E+03  (-0.1673701E+03)
 number of electron     210.0000000 magnetization 
 augmentation part      210.0000000 magnetization 

 Free energy of the ion-electron system (eV)
  ---------------------------------------------------
  alpha Z        PSCENC =      1834.20689785
  Ewald energy   TEWEN  =    -22004.62035786
  -Hartree energ DENC   =     -4095.88170025
  -exchange      EXHF   =         0.00000000
  -V(xc)+E(xc)   XCENC  =       831.75118040
  PAW double counting   =     20408.24726606   -20091.36597172
  entropy T*S    EENTRO =        -0.00234550
  eigenvalues    EBANDS =     -2899.70835498
  atomic energy  EATOM  =     25833.82965158
  Solvation  Ediel_sol  =         0.00000000
  ---------------------------------------------------
  free energy    TOTEN  =      -183.54373443 eV

  energy without entropy =     -183.54138893  energy(sigma->0) =     -183.54256168


--------------------------------------------------------------------------------------------------------




--------------------------------------- Iteration      1(   4)  ---------------------------------------


     EDDAV:  cpu time      4.1520: real time      4.1686
       DOS:  cpu time      0.0048: real time      0.0048
    --------------------------------------------
      LOOP:  cpu time      4.1567: real time      4.1734

 eigenvalue-minimisations  : 25008
 total energy-change (2. order) :-0.1197156E+02  (-0.1168291E+02)
 number of electron     210.0000000 magnetization 
 augmentation part      210.0000000 magnetization 

 Free energy of the ion-electron system (eV)
  ---------------------------------------------------
  alpha Z        PSCENC =      1834.20689785
  Ewald energy   TEWEN  =    -22004.62035786
  -Hartree energ DENC   =     -4095.88170025
  -exchange      EXHF   =         0.00000000
  -V(xc)+E(xc)   XCENC  =       831.75118040
  PAW double counting   =     20408.24726606   -20091.36597172
  entropy T*S    EENTRO =        -0.00368896
  eigenvalues    EBANDS =     -2911.67856722
  atomic energy  EATOM  =     25833.82965158
  Solvation  Ediel_sol  =         0.00000000
  ---------------------------------------------------
  free energy    TOTEN  =      -195.51529013 eV

  energy without entropy =     -195.51160117  energy(sigma->0) =     -195.51344565


--------------------------------------------------------------------------------------------------------




--------------------------------------- Iteration      1(   5)  ---------------------------------------


     EDDAV:  cpu time      4.1640: real time      4.1882
       DOS:  cpu time      0.0049: real time      0.0049
    CHARGE:  cpu time      0.0838: real time      0.0841
    MIXING:  cpu time      0.0003: real time      0.0003
    --------------------------------------------
      LOOP:  cpu time      4.2529: real time      4.2774

 eigenvalue-minimisations  : 25080
 total energy-change (2. order) :-0.6759026E+00  (-0.6712302E+00)
 number of electron     209.9999857 magnetization 
 augmentation part       44.9053979 magnetization 

 Broyden mixing:
  rms(total) = 0.54374E+01    rms(broyden)= 0.54364E+01
  rms(prec ) = 0.59526E+01
  weight for this iteration     100.00

 Free energy of the ion-electron system (eV)
  ---------------------------------------------------
  alpha Z        PSCENC =      1834.20689785
  Ewald energy   TEWEN  =    -22004.62035786
  -Hartree energ DENC   =     -4095.88170025
  -exchange      EXHF   =         0.00000000
  -V(xc)+E(xc)   XCENC  =       831.75118040
  PAW double counting   =     20408.24726606   -20091.36597172
  entropy T*S    EENTRO =        -0.00373803
  eigenvalues    EBANDS =     -2912.35442071
  atomic energy  EATOM  =     25833.82965158
  Solvation  Ediel_sol  =         0.00000000
  ---------------------------------------------------
  free energy    TOTEN  =      -196.19119269 eV

  energy without entropy =     -196.18745465  energy(sigma->0) =     -196.18932367


--------------------------------------------------------------------------------------------------------




--------------------------------------- Iteration      1(   6)  ---------------------------------------


    POTLOK:  cpu time      0.0042: real time      0.0043
    SETDIJ:  cpu time      0.0018: real time      0.0019
     EDDAV:  cpu time      3.4622: real time      3.4761
       DOS:  cpu time      0.0047: real time      0.0047
    CHARGE:  cpu time      0.0853: real time      0.0856
    MIXING:  cpu time      0.0003: real time      0.0003
    --------------------------------------------
      LOOP:  cpu time      3.5586: real time      3.5730

 eigenvalue-minimisations  : 19688
 total energy-change (2. order) : 0.7500035E+01  (-0.1975640E+01)
 number of electron     209.9999850 magnetization 
 augmentation part       46.4475884 magnetization 

 Broyden mixing:
  rms(total) = 0.20264E+01    rms(broyden)= 0.20261E+01
  rms(prec ) = 0.24627E+01
  weight for this iteration     100.00

 eigenvalues of (default mixing * dielectric matrix)
  average eigenvalue GAMMA=   1.4888
  1.4888

 Free energy of the ion-electron system (eV)
  ---------------------------------------------------
  alpha Z        PSCENC =      1834.20689785
  Ewald energy   TEWEN  =    -22004.62035786
  -Hartree energ DENC   =     -3873.13314465
  -exchange      EXHF   =         0.00000000
  -V(xc)+E(xc)   XCENC  =       820.83493628
  PAW double counting   =     24486.32700727   -24196.72165578
  entropy T*S    EENTRO =        -0.00263384
  eigenvalues    EBANDS =     -3089.41185847
  atomic energy  EATOM  =     25833.82965158
  Solvation  Ediel_sol  =         0.00000000
  ---------------------------------------------------
  free energy    TOTEN  =      -188.69115761 eV

  energy without entropy =     -188.68852378  energy(sigma->0) =     -188.68984069


--------------------------------------------------------------------------------------------------------




--------------------------------------- Iteration      1(   7)  ---------------------------------------


    POTLOK:  cpu time      0.0045: real time      0.0047
    SETDIJ:  cpu time      0.0017: real time      0.0017
     EDDAV:  cpu time      3.9086: real time      3.9370
       DOS:  cpu time      0.0046: real time      0.0046
    CHARGE:  cpu time      0.0858: real time      0.0861
    MIXING:  cpu time      0.0004: real time      0.0004
    --------------------------------------------
      LOOP:  cpu time      4.0057: real time      4.0345

 eigenvalue-minimisations  : 22688
 total energy-change (2. order) : 0.1169112E+00  (-0.1542911E+01)
 number of electron     209.9999855 magnetization 
 augmentation part       46.4232194 magnetization 

 Broyden mixing:
  rms(total) = 0.98240E+00    rms(broyden)= 0.98207E+00
  rms(prec ) = 0.22683E+01
  weight for this iteration     100.00

 eigenvalues of (default mixing * dielectric matrix)
  average eigenvalue GAMMA=   1.0955
  1.6267  0.5643

 Free energy of the ion-electron system (eV)
  ---------------------------------------------------
  alpha Z        PSCENC =      1834.20689785
  Ewald energy   TEWEN  =    -22004.62035786
  -Hartree energ DENC   =     -3795.79962978
  -exchange      EXHF   =         0.00000000
  -V(xc)+E(xc)   XCENC  =       816.49006883
  PAW double counting   =     27125.18155604   -26846.91731957
  entropy T*S    EENTRO =        -0.00258314
  eigenvalues    EBANDS =     -3150.94253038
  atomic energy  EATOM  =     25833.82965158
  Solvation  Ediel_sol  =         0.00000000
  ---------------------------------------------------
  free energy    TOTEN  =      -188.57424644 eV

  energy without entropy =     -188.57166330  energy(sigma->0) =     -188.57295487


--------------------------------------------------------------------------------------------------------




--------------------------------------- Iteration      1(   8)  ---------------------------------------


    POTLOK:  cpu time      0.0046: real time      0.0047
    SETDIJ:  cpu time      0.0017: real time      0.0017
     EDDAV:  cpu time      3.6900: real time      3.7049
       DOS:  cpu time      0.0047: real time      0.0047
    CHARGE:  cpu time      0.0853: real time      0.0855
    MIXING:  cpu time      0.0003: real time      0.0003
    --------------------------------------------
      LOOP:  cpu time      3.7865: real time      3.8018

 eigenvalue-minimisations  : 21488
 total energy-change (2. order) : 0.1844436E+01  (-0.7258557E+00)
 number of electron     209.9999852 magnetization 
 augmentation part       46.8217624 magnetization 

 Broyden mixing:
  rms(total) = 0.34821E+00    rms(broyden)= 0.34760E+00
  rms(prec ) = 0.52815E+00
  weight for this iteration     100.00

 eigenvalues of (default mixing * dielectric matrix)
  average eigenvalue GAMMA=   1.1268
  1.7415  1.1962  0.4427

 Free energy of the ion-electron system (eV)
  ---------------------------------------------------
  alpha Z        PSCENC =      1834.20689785
  Ewald energy   TEWEN  =    -22004.62035786
  -Hartree energ DENC   =     -3757.98097198
  -exchange      EXHF   =         0.00000000
  -V(xc)+E(xc)   XCENC  =       814.88259938
  PAW double counting   =     27968.43198159   -27694.48248070
  entropy T*S    EENTRO =        -0.00194526
  eigenvalues    EBANDS =     -3180.99518518
  atomic energy  EATOM  =     25833.82965158
  Solvation  Ediel_sol  =         0.00000000
  ---------------------------------------------------
  free energy    TOTEN  =      -186.72981057 eV

  energy without entropy =     -186.72786531  energy(sigma->0) =     -186.72883794


--------------------------------------------------------------------------------------------------------




--------------------------------------- Iteration      1(   9)  ---------------------------------------


    POTLOK:  cpu time      0.0045: real time      0.0046
    SETDIJ:  cpu time      0.0017: real time      0.0017
     EDDAV:  cpu time      3.7536: real time      3.7687
       DOS:  cpu time      0.0045: real time      0.0045
    CHARGE:  cpu time      0.0851: real time      0.0853
    MIXING:  cpu time      0.0003: real time      0.0003
    --------------------------------------------
      LOOP:  cpu time      3.8496: real time      3.8651

 eigenvalue-minimisations  : 22032
 total energy-change (2. order) :-0.3250375E-01  (-0.1186522E+00)
 number of electron     209.9999854 magnetization 
 augmentation part       46.8168096 magnetization 

 Broyden mixing:
  rms(total) = 0.28026E+00    rms(broyden)= 0.28015E+00
  rms(prec ) = 0.41465E+00
  weight for this iteration     100.00

 eigenvalues of (default mixing * dielectric matrix)
  average eigenvalue GAMMA=   1.1517
  1.9734  1.6913  0.5514  0.3905

 Free energy of the ion-electron system (eV)
  ---------------------------------------------------
  alpha Z        PSCENC =      1834.20689785
  Ewald energy   TEWEN  =    -22004.62035786
  -Hartree energ DENC   =     -3755.45150486
  -exchange      EXHF   =         0.00000000
  -V(xc)+E(xc)   XCENC  =       814.78029426
  PAW double counting   =     28227.67611731   -27953.27472343
  entropy T*S    EENTRO =        -0.00122134
  eigenvalues    EBANDS =     -3183.90746783
  atomic energy  EATOM  =     25833.82965158
  Solvation  Ediel_sol  =         0.00000000
  ---------------------------------------------------
  free energy    TOTEN  =      -186.76231432 eV

  energy without entropy =     -186.76109297  energy(sigma->0) =     -186.76170364


--------------------------------------------------------------------------------------------------------




--------------------------------------- Iteration      1(  10)  ---------------------------------------


    POTLOK:  cpu time      0.0045: real time      0.0047
    SETDIJ:  cpu time      0.0018: real time      0.0018
     EDDAV:  cpu time      3.6796: real time      3.6941
       DOS:  cpu time      0.0046: real time      0.0047
    CHARGE:  cpu time      0.0845: real time      0.0847
    MIXING:  cpu time      0.0003: real time      0.0003
    --------------------------------------------
      LOOP:  cpu time      3.7754: real time      3.7903

 eigenvalue-minimisations  : 21440
 total energy-change (2. order) : 0.2763347E-01  (-0.2844275E-01)
 number of electron     209.9999854 magnetization 
 augmentation part       46.7745197 magnetization 

 Broyden mixing:
  rms(total) = 0.12706E+00    rms(broyden)= 0.12700E+00
  rms(prec ) = 0.19965E+00
  weight for this iteration     100.00

 eigenvalues of (default mixing * dielectric matrix)
  average eigenvalue GAMMA=   1.1941
  2.5996  1.7037  0.8292  0.4339  0.4039

 Free energy of the ion-electron system (eV)
  ---------------------------------------------------
  alpha Z        PSCENC =      1834.20689785
  Ewald energy   TEWEN  =    -22004.62035786
  -Hartree energ DENC   =     -3758.27010960
  -exchange      EXHF   =         0.00000000
  -V(xc)+E(xc)   XCENC  =       814.89165386
  PAW double counting   =     28447.25258917   -28171.09617109
  entropy T*S    EENTRO =        -0.00124845
  eigenvalues    EBANDS =     -3182.92758630
  atomic energy  EATOM  =     25833.82965158
  Solvation  Ediel_sol  =         0.00000000
  ---------------------------------------------------
  free energy    TOTEN  =      -186.73468085 eV

  energy without entropy =     -186.73343240  energy(sigma->0) =     -186.73405662


--------------------------------------------------------------------------------------------------------




--------------------------------------- Iteration      1(  11)  ---------------------------------------


    POTLOK:  cpu time      0.0045: real time      0.0046
    SETDIJ:  cpu time      0.0017: real time      0.0017
     EDDAV:  cpu time      3.6720: real time      3.6868
       DOS:  cpu time      0.0042: real time      0.0043
    CHARGE:  cpu time      0.0858: real time      0.0861
    MIXING:  cpu time      0.0004: real time      0.0004
    --------------------------------------------
      LOOP:  cpu time      3.7686: real time      3.7839

 eigenvalue-minimisations  : 21312
 total energy-change (2. order) : 0.3181964E-02  (-0.9100843E-02)
 number of electron     209.9999854 magnetization 
 augmentation part       46.7235347 magnetization 

 Broyden mixing:
  rms(total) = 0.44977E-01    rms(broyden)= 0.44903E-01
  rms(prec ) = 0.10246E+00
  weight for this iteration     100.00

 eigenvalues of (default mixing * dielectric matrix)
  average eigenvalue GAMMA=   1.0774
  2.5046  1.7003  0.9251  0.4833  0.4833  0.3680

 Free energy of the ion-electron system (eV)
  ---------------------------------------------------
  alpha Z        PSCENC =      1834.20689785
  Ewald energy   TEWEN  =    -22004.62035786
  -Hartree energ DENC   =     -3761.56494686
  -exchange      EXHF   =         0.00000000
  -V(xc)+E(xc)   XCENC  =       815.04513090
  PAW double counting   =     28562.17949979   -28284.32574498
  entropy T*S    EENTRO =        -0.00100689
  eigenvalues    EBANDS =     -3181.48062243
  atomic energy  EATOM  =     25833.82965158
  Solvation  Ediel_sol  =         0.00000000
  ---------------------------------------------------
  free energy    TOTEN  =      -186.73149889 eV

  energy without entropy =     -186.73049200  energy(sigma->0) =     -186.73099544


--------------------------------------------------------------------------------------------------------




--------------------------------------- Iteration      1(  12)  ---------------------------------------


    POTLOK:  cpu time      0.0045: real time      0.0047
    SETDIJ:  cpu time      0.0017: real time      0.0017
     EDDAV:  cpu time      3.6673: real time      3.6816
       DOS:  cpu time      0.0051: real time      0.0051
    CHARGE:  cpu time      0.0880: real time      0.0883
    MIXING:  cpu time      0.0003: real time      0.0003
    --------------------------------------------
      LOOP:  cpu time      3.7670: real time      3.7817

[...]
     33     -25.2474      2.00000
     34     -25.2334      2.00000
     35     -25.1966      2.00000
     36     -25.1703      2.00000
     37     -25.0516      2.00000
     38     -24.5626      2.00000
     39     -24.4834      2.00000
     40     -24.3590      2.00000
     41     -24.3470      2.00000
     42     -24.3145      2.00000
     43     -24.2935      2.00000
     44     -24.2778      2.00000
     45     -24.1519      2.00000
     46     -24.0893      2.00000
     47     -21.3025      2.00000
     48     -21.2825      2.00000
     49     -21.2702      2.00000
     50     -21.0747      2.00000
     51     -21.0644      2.00000
     52     -21.0474      2.00000
     53     -21.0387      2.00000
     54     -21.0307      2.00000
     55     -21.0261      2.00000
     56     -21.0208      2.00000
     57     -21.0124      2.00000
     58     -21.0072      2.00000
     59     -20.7444      2.00000
     60     -20.7292      2.00000
     61     -20.7181      2.00000
     62       4.0135      2.00000
     63       4.4254      2.00000
     64       4.6858      2.00000
     65       4.9618      2.00000
     66       5.2739      2.00000
     67       5.3994      2.00000
     68       5.8132      2.00000
     69       6.2111      2.00000
     70       6.6210      2.00000
     71       6.6825      2.00000
     72       6.6994      2.00000
     73       6.7142      2.00000
     74       6.7743      2.00000
     75       6.8732      2.00000
     76       6.9330      2.00000
     77       6.9450      2.00000
     78       7.0235      2.00000
     79       7.0444      2.00000
     80       7.1068      2.00000
     81       7.1623      2.00000
     82       7.4441      2.00000
     83       7.4763      2.00000
     84       7.5359      2.00000
     85       7.6152      2.00000
     86       7.6298      2.00000
     87       7.6589      2.00000
     88       7.6923      2.00000
     89       7.7226      2.00000
     90       7.7617      2.00000
     91       7.7818      2.00000
     92       7.8010      2.00000
     93       7.8572      2.00000
     94       7.8781      2.00000
     95       7.9154      2.00000
     96       7.9397      2.00000
     97       7.9690      2.00000
     98       8.0052      2.00000
     99       8.0274      2.00000
    100       8.0476      2.00000
    101       8.0835      2.00000
    102       8.1112      2.00000
    103       8.1737      2.00000
    104       8.2011      2.00000
    105       8.2435      2.00000
    106       8.3180      2.00000
    107       8.3454      2.00000
    108       8.3938      2.00000
    109       8.7510      2.00000
    110      11.4975      0.00000
    111      11.5779      0.00000
    112      11.6900      0.00000
    113      11.7749      0.00000
    114      11.8144      0.00000
    115      11.8834      0.00000
    116      11.9317      0.00000
    117      11.9867      0.00000
    118      12.0747      0.00000
    119      12.1433      0.00000
    120      12.2090      0.00000
    121      12.2467      0.00000
    122      12.3204      0.00000
    123      12.3705      0.00000
    124      12.4208      0.00000
    125      12.4672      0.00000
    126      12.4897      0.00000
    127      12.5443      0.00000
    128      12.6654      0.00000

 k-point    63 :       0.4000   -0.4000    0.4000
  band No.  band energies     occupation 
      1     -64.2060      2.00000
      2     -64.1135      2.00000
      3     -64.0925      2.00000
      4     -64.0871      2.00000
      5     -64.0627      2.00000
      6     -64.0519      2.00000
      7     -51.1406      2.00000
      8     -51.0464      2.00000
      9     -44.9888      2.00000
     10     -44.9538      2.00000
     11     -44.9348      2.00000
     12     -44.9267      2.00000
     13     -44.8298      2.00000
     14     -28.5875      2.00000
     15     -28.5415      2.00000
     16     -28.5265      2.00000
     17     -28.3610      2.00000
     18     -28.3461      2.00000
     19     -28.3323      2.00000
     20     -28.3240      2.00000
     21     -28.3134      2.00000
     22     -28.3060      2.00000
     23     -28.2935      2.00000
     24     -28.2901      2.00000
     25     -28.2871      2.00000
     26     -28.2717      2.00000
     27     -28.2674      2.00000
     28     -28.2636      2.00000
     29     -28.1778      2.00000
     30     -28.1598      2.00000
     31     -28.1115      2.00000
     32     -25.3671      2.00000
     33     -25.2475      2.00000
     34     -25.2329      2.00000
     35     -25.1967      2.00000
     36     -25.1706      2.00000
     37     -25.0518      2.00000
     38     -24.5617      2.00000
     39     -24.4845      2.00000
     40     -24.3594      2.00000
     41     -24.3473      2.00000
     42     -24.3163      2.00000
     43     -24.2911      2.00000
     44     -24.2778      2.00000
     45     -24.1528      2.00000
     46     -24.0878      2.00000
     47     -21.3012      2.00000
     48     -21.2828      2.00000
     49     -21.2716      2.00000
     50     -21.0748      2.00000
     51     -21.0641      2.00000
     52     -21.0474      2.00000
     53     -21.0381      2.00000
     54     -21.0322      2.00000
     55     -21.0267      2.00000
     56     -21.0200      2.00000
     57     -21.0132      2.00000
     58     -21.0058      2.00000
     59     -20.7436      2.00000
     60     -20.7293      2.00000
     61     -20.7186      2.00000
     62       3.9846      2.00000
     63       4.5379      2.00000
     64       4.6382      2.00000
     65       4.9011      2.00000
     66       5.3084      2.00000
     67       5.4444      2.00000
     68       5.7016      2.00000
     69       6.2630      2.00000
     70       6.6572      2.00000
     71       6.6654      2.00000
     72       6.6949      2.00000
     73       6.7331      2.00000
     74       6.7487      2.00000
     75       6.8546      2.00000
     76       6.9289      2.00000
     77       6.9639      2.00000
     78       7.0233      2.00000
     79       7.0859      2.00000
     80       7.0970      2.00000
     81       7.1319      2.00000
     82       7.4425      2.00000
     83       7.4764      2.00000
     84       7.5373      2.00000
     85       7.6137      2.00000
     86       7.6365      2.00000
     87       7.6514      2.00000
     88       7.6918      2.00000
     89       7.7149      2.00000
     90       7.7639      2.00000
     91       7.7789      2.00000
     92       7.8229      2.00000
     93       7.8514      2.00000
     94       7.8954      2.00000
     95       7.9207      2.00000
     96       7.9316      2.00000
     97       7.9625      2.00000
     98       7.9986      2.00000
     99       8.0220      2.00000
    100       8.0419      2.00000
    101       8.0775      2.00000
    102       8.1430      2.00000
    103       8.1702      2.00000
    104       8.1885      2.00000
    105       8.2412      2.00000
    106       8.2815      2.00000
    107       8.3676      2.00000
    108       8.4047      2.00000
    109       8.7517      2.00000
    110      11.4846      0.00000
    111      11.5801      0.00000
    112      11.7030      0.00000
    113      11.7573      0.00000
    114      11.8499      0.00000
    115      11.8829      0.00000
    116      11.9132      0.00000
    117      11.9995      0.00000
    118      12.0698      0.00000
    119      12.1750      0.00000
    120      12.2160      0.00000
    121      12.2714      0.00000
    122      12.2866      0.00000
    123      12.3299      0.00000
    124      12.4089      0.00000
    125      12.4766      0.00000
    126      12.4974      0.00000
    127      12.5371      0.00000
    128      12.6064      0.00000


--------------------------------------------------------------------------------------------------------


 soft charge-density along one line, spin component           1
         0         1         2         3         4         5         6         7         8         9
 total charge-density along one line
 
 pseudopotential strength for first ion, spin component:           1
  5.758 -20.313  -0.002   0.000  -0.000   0.005  -0.001   0.001
-20.313   9.228  -0.004   0.000  -0.000   0.000  -0.000   0.000
 -0.002  -0.004  -9.786   0.001  -0.001   6.026  -0.001   0.001
  0.000   0.000   0.001  -9.786   0.003  -0.001   6.026  -0.003
 -0.000  -0.000  -0.001   0.003  -9.782   0.001  -0.003   6.023
  0.005   0.000   6.026  -0.001   0.001   7.928   0.001  -0.001
 -0.001  -0.000  -0.001   6.026  -0.003   0.001   7.928   0.002
  0.001   0.000   0.001  -0.003   6.023  -0.001   0.002   7.930
 -0.001  -0.000  -0.000   0.000  -0.002   0.000  -0.001   0.003
  0.001   0.000   0.000  -0.002   0.000  -0.000   0.003  -0.001
 -0.001  -0.000   0.001   0.000   0.000  -0.001  -0.000  -0.000
  0.002   0.001   0.000  -0.000   0.000  -0.001   0.000  -0.000
  0.001   0.000   0.002  -0.000  -0.000  -0.002   0.000   0.000
 -0.001  -0.000  -0.000   0.000  -0.003   0.000  -0.001   0.004
  0.001   0.000   0.000  -0.003   0.000  -0.000   0.004  -0.001
 -0.001  -0.000   0.001   0.000   0.000  -0.002  -0.000  -0.000
  0.003   0.001   0.000  -0.000   0.000  -0.001   0.000  -0.000
  0.002   0.001   0.002  -0.000  -0.000  -0.003   0.000   0.000
 total augmentation occupancy for first ion, spin component:           1
  1.995  -0.046  -0.000   0.000  -0.000   0.000   0.000  -0.000  -0.001   0.001  -0.001   0.008   0.002   0.001  -0.001   0.001
 -0.046   1.336   0.001   0.001  -0.001   0.002  -0.001   0.001  -0.008   0.008  -0.018   0.023   0.028   0.006  -0.006   0.007
 -0.000   0.001   1.996   0.000  -0.000  -0.029  -0.000   0.000  -0.002   0.002   0.003  -0.010   0.005   0.001  -0.001  -0.002
  0.000   0.001   0.000   1.996  -0.000  -0.000  -0.029   0.001  -0.009   0.002   0.002  -0.002   0.000   0.006  -0.001  -0.001
 -0.000  -0.001  -0.000  -0.000   1.996   0.000   0.001  -0.029   0.002  -0.009   0.001   0.002  -0.001  -0.001   0.006  -0.001
  0.000   0.002  -0.029  -0.000   0.000   0.066   0.000  -0.000   0.004  -0.005  -0.005   0.019  -0.009  -0.002   0.003   0.002
  0.000  -0.001  -0.000  -0.029   0.001   0.000   0.066  -0.001   0.018   0.004  -0.001   0.004  -0.000  -0.011  -0.001   0.001
 -0.000   0.001   0.000   0.001  -0.029  -0.000  -0.001   0.069   0.004   0.017  -0.001  -0.005   0.001  -0.001  -0.011   0.000
 -0.001  -0.008  -0.002  -0.009   0.002   0.004   0.018   0.004   3.322   0.030   0.010   0.032  -0.000  -1.389  -0.006  -0.006
  0.001   0.008   0.002   0.002  -0.009  -0.005   0.004   0.017   0.030   3.326   0.005  -0.035  -0.009  -0.006  -1.386  -0.003
 -0.001  -0.018   0.003   0.002   0.001  -0.005  -0.001  -0.001   0.010   0.005   2.692   0.030  -0.031  -0.005  -0.003  -1.231
  0.008   0.023  -0.010  -0.002   0.002   0.019   0.004  -0.005   0.032  -0.035   0.030   3.324   0.055  -0.017   0.018  -0.013
  0.002   0.028   0.005   0.000  -0.001  -0.009  -0.000   0.001  -0.000  -0.009  -0.031   0.055   2.727   0.000   0.005   0.011
  0.001   0.006   0.001   0.006  -0.001  -0.002  -0.011  -0.001  -1.389  -0.006  -0.005  -0.017   0.000   0.592   0.001   0.003
 -0.001  -0.006  -0.001  -0.001   0.006   0.003  -0.001  -0.011  -0.006  -1.386  -0.003   0.018   0.005   0.001   0.589   0.001
  0.001   0.007  -0.002  -0.001  -0.001   0.002   0.001   0.000  -0.006  -0.003  -1.231  -0.013   0.011   0.003   0.001   0.570
 -0.007  -0.008   0.006   0.001  -0.001  -0.011  -0.002   0.003  -0.017   0.018  -0.012  -1.390  -0.023   0.009  -0.009   0.005
 -0.002  -0.011  -0.003  -0.000   0.001   0.004   0.000  -0.001   0.000   0.005   0.011  -0.024  -1.243  -0.000  -0.003  -0.004


------------------------ aborting loop because EDIFF is reached ----------------------------------------


    CHARGE:  cpu time      0.0882: real time      0.0885
    FORLOC:  cpu time      0.0005: real time      0.0005
    FORNL :  cpu time      0.8205: real time      0.8230
    STRESS:  cpu time      1.0125: real time      1.0157
    FORCOR:  cpu time      0.0043: real time      0.0043
    FORHAR:  cpu time      0.0013: real time      0.0013
    MIXING:  cpu time      0.0009: real time      0.0009
    OFIELD:  cpu time      0.0000: real time      0.0000

  FORCE on cell =-STRESS in cart. coord.  units (eV):
  Direction    XX          YY          ZZ          XY          YZ          ZX
  --------------------------------------------------------------------------------------
  Alpha Z  1834.20690  1834.20690  1834.20690
  Ewald   -7312.21850 -7360.12422 -7332.34758    -0.00000     0.00000   -12.64610
  Hartree  1275.21371  1228.15470  1257.57215     0.27823     0.61092   -11.07613
  E(xc)    -965.92969  -965.91241  -965.91382    -0.01058    -0.01038     0.00957
  Local    1600.70213  1695.44234  1637.82182    -0.14112    -0.52145    23.39082
  n-local  -268.36501  -267.10068  -266.87733    -0.03614    -0.09210    -0.26149
  augment   621.57154   621.39633   621.54100     0.01235    -0.00101     0.08160
  Kinetic  3188.94418  3188.36568  3188.21316    -0.09291     0.11726     0.51591
  Fock        0.00000     0.00000     0.00000     0.00000     0.00000     0.00000
  -------------------------------------------------------------------------------------
  Total     -25.87475   -25.57136   -25.78369     0.00984     0.10325     0.01418
  in kB    -145.51544  -143.80924  -145.00331     0.05531     0.58064     0.07973
  external pressure =     -144.78 kB  Pullay stress =        0.00 kB


 VOLUME and BASIS-vectors are now :
 -----------------------------------------------------------------------------
  energy-cutoff  :      250.00
  volume of cell :      284.89
      direct lattice vectors                 reciprocal lattice vectors
     6.580000000  0.000000000  0.000000000     0.151975684  0.000000000  0.000000000
     0.000000000  6.580000000  0.000000000     0.000000000  0.151975684  0.000000000
     0.000000000  0.000000000  6.580000000     0.000000000  0.000000000  0.151975684

  length of vectors
     6.580000000  6.580000000  6.580000000     0.151975684  0.151975684  0.151975684


 FORCES acting on ions
    electron-ion (+dipol)            ewald-force                    non-local-force                 convergence-correction
 -----------------------------------------------------------------------------------------------
   0.405E-01 -.616E+02 -.268E-01   0.853E-13 0.612E+02 -.284E-13   -.625E-01 0.210E-01 0.548E-01   0.508E-05 -.693E-05 -.391E-05
   0.204E+02 0.413E+02 0.413E+02   -.204E+02 -.408E+02 -.408E+02   -.207E-01 -.102E+00 -.178E+00   0.578E-05 0.333E-04 0.188E-04
   -.204E+02 -.413E+02 0.413E+02   0.204E+02 0.408E+02 -.408E+02   0.219E-01 0.700E-01 -.195E+00   -.109E-04 -.279E-04 0.118E-04
   0.204E+02 -.413E+02 -.413E+02   -.204E+02 0.408E+02 0.408E+02   -.209E-01 0.723E-01 0.195E+00   0.108E-04 -.275E-04 -.150E-04
   -.204E+02 0.412E+02 -.413E+02   0.204E+02 -.408E+02 0.408E+02   0.211E-01 -.925E-01 0.167E+00   -.578E-05 0.300E-04 -.176E-04
   -.666E-01 0.661E+02 -.710E-01   -.568E-13 -.659E+02 0.284E-13   0.539E-01 0.600E-01 0.539E-01   -.338E-05 0.584E-05 -.281E-05
   0.220E+02 -.443E+02 0.444E+02   -.220E+02 0.439E+02 -.439E+02   -.317E-01 -.111E-01 -.730E-01   0.108E-04 -.405E-04 0.169E-04
   -.173E+02 0.350E+02 0.350E+02   0.173E+02 -.345E+02 -.345E+02   0.127E-01 0.194E-01 -.481E-01   -.343E-05 0.168E-04 0.132E-04
   -.213E-01 -.523E+02 -.178E-01   -.568E-13 0.518E+02 -.284E-13   0.420E-01 -.320E-01 0.456E-01   -.582E-05 0.208E-05 -.719E-05
   0.173E+02 0.350E+02 -.350E+02   -.173E+02 -.345E+02 0.345E+02   -.130E-01 0.241E-01 0.382E-01   0.201E-05 0.161E-04 -.113E-04
   -.235E-01 -.662E+02 0.320E-01   0.000E+00 0.659E+02 0.568E-13   0.122E-01 -.632E-01 -.158E-01   -.264E-05 0.933E-06 0.482E-05
   0.193E-01 0.663E+02 0.121E-01   -.568E-13 -.659E+02 0.114E-12   -.143E-01 0.379E-01 -.104E-01   0.219E-05 0.120E-04 0.300E-05
   0.212E-01 -.662E+02 0.225E-01   -.171E-12 0.659E+02 0.000E+00   -.117E-01 -.428E-01 -.722E-02   0.242E-05 -.375E-05 0.261E-05
   -.204E-01 0.663E+02 0.518E-02   -.142E-12 -.659E+02 -.568E-13   0.169E-01 0.217E-01 -.383E-02   -.212E-05 0.634E-05 0.260E-05
   0.210E-01 0.663E+02 -.341E-01   -.853E-13 -.659E+02 -.853E-13   -.972E-02 0.559E-01 0.181E-01   0.425E-05 0.137E-04 -.416E-05
   -.220E+02 -.443E+02 -.443E+02   0.220E+02 0.439E+02 0.439E+02   0.208E-01 -.655E-01 -.692E-01   -.108E-04 -.395E-04 -.156E-04
 -----------------------------------------------------------------------------------------------
   -.171E-01 0.270E-01 0.282E-01   -.355E-13 -.284E-13 0.568E-13   0.171E-01 -.270E-01 -.282E-01   -.149E-05 -.905E-05 -.377E-05
 
 
 POSITION                                       TOTAL-FORCE (eV/Angst)
 -----------------------------------------------------------------------------------
      4.93500      1.64500      4.93500        -0.022003     -0.438313      0.028027
      3.29000      3.29000      0.00000         0.020100      0.380621      0.322204
      0.00000      0.00000      0.00000        -0.017693     -0.436799      0.340553
      3.29000      0.00000      3.29000         0.018296     -0.432827     -0.352372
      0.00000      3.29000      3.29000        -0.020776      0.353748     -0.304473
      1.64500      4.93500      4.93500        -0.012767      0.315207     -0.017123
      3.29000      0.00000      0.00000         0.018514     -0.356451      0.381120
      0.00000      3.29000      0.00000        -0.007415      0.489816      0.460762
      1.64500      1.64500      4.93500         0.020668     -0.531772      0.027783
      3.29000      3.29000      3.29000         0.008322      0.490168     -0.460421
      1.64500      1.64500      1.64500        -0.011221     -0.365819      0.016142
      4.93500      4.93500      1.64500         0.005029      0.446393      0.001676
      4.93500      1.64500      1.64500         0.009476     -0.371200      0.015249
      1.64500      4.93500      1.64500        -0.003527      0.457491      0.001348
      4.93500      4.93500      4.93500         0.011282      0.427201     -0.016002
      0.00000      0.00000      3.29000        -0.016284     -0.427465     -0.444472
 -----------------------------------------------------------------------------------
    total drift:                                0.000005      0.000012      0.000001


--------------------------------------------------------------------------------------------------------



  FREE ENERGIE OF THE ION-ELECTRON SYSTEM (eV)
  ---------------------------------------------------
  free  energy   TOTEN  =      -186.72714998 eV

  energy  without entropy=     -186.72612776  energy(sigma->0) =     -186.72663887
 


--------------------------------------------------------------------------------------------------------


    POTLOK:  cpu time      0.0057: real time      0.0057


--------------------------------------------------------------------------------------------------------


     LOOP+:  cpu time     94.3838: real time     97.1793
    4ORBIT:  cpu time      0.0000: real time      0.0000

 total amount of memory used by VASP MPI-rank0    48253. kBytes
=======================================================================

   base      :      30000. kBytes
   nonl-proj :       8332. kBytes
   fftplans  :        456. kBytes
   grid      :        919. kBytes
   one-center:         31. kBytes
   wavefun   :       8515. kBytes
 
  
  
 General timing and accounting informations for this job:
 ========================================================
  
                  Total CPU time used (sec):       97.473
                            User time (sec):       96.353
                          System time (sec):        1.119
                         Elapsed time (sec):      102.893
  
                   Maximum memory used (kb):       90008.
                   Average memory used (kb):          N/A
  
                          Minor page faults:         8144
                          Major page faults:            0
                 Voluntary context switches:          229
