 vasp.6.3.1 04May22 (build Jul 26 2022 04:02:40) complex                        
  
 executed on             LinuxIFC date 2023.11.30  12:40:02
 running on   48 total cores
 distrk:  each k-point on   48 cores,    1 groups
 distr:  one band on NCORE=  12 cores,    4 groups


--------------------------------------------------------------------------------------------------------


 INCAR:
   ISTART = 0
   NWRITE = 2
   PREC = Accurate
   ENCUT = 250
   GGA = PE
   NSW = 0
   ISIF = 2
   ISYM = 2
   NBLOCK = 1
   KBLOCK = 1
   IBRION = -1
   NELM = 80
   EDIFF = 1E-08
   EDIFFG = -0.01
   ALGO = Normal
   LDIAG = .TRUE.
   LREAL = .FALSE.
   ISMEAR = 0
   SIGMA = 0.02
   ICHARG = 2
   LPLANE = .TRUE.
   NPAR = 4
   LSCALU = .FALSE.
   NSIM = 4
   LWAVE = .FALSE.
   LCHARG = .FALSE.
   ICORELEVEL = 1

 POTCAR:    PAW_PBE Nb_sv 25May2007               
 POTCAR:    PAW_PBE Mo_sv 02Feb2006               
 POTCAR:    PAW_PBE Ta_pv 07Sep2000               
 POTCAR:    PAW_PBE W_sv 04Sep2015                
 POTCAR:    PAW_PBE Nb_sv 25May2007               
   SHA256 =  0e8fc07c9fcd1164cf2ade22d0399fd28f85e91cd773dfa6cf24839a48c95e24 Nb_sv/POTCAR          
   COPYR  = (c) Copyright 25May2007 Georg Kresse                                                    
   COPYR  = This file is part of the software VASP. Any use, copying, and all other rights are regul
   COPYR  = If you do not have a valid VASP license, you may not use, copy or distribute this file. 
   VRHFIN =Nb: 4p5s4d                                                                               
   LEXCH  = PE                                                                                      
   EATOM  =  1555.1913 eV,  114.3033 Ry                                                             
                                                                                                    
   TITEL  = PAW_PBE Nb_sv 25May2007                                                                 
   LULTRA =        F    use ultrasoft PP ?                                                          
   IUNSCR =        1    unscreen: 0-lin 1-nonlin 2-no                                               
   RPACOR =    1.800    partial core radius                                                         
   POMASS =   92.910; ZVAL   =   13.000    mass and valenz                                          
   RCORE  =    2.400    outmost cutoff radius                                                       
   RWIGS  =    2.400; RWIGS  =    1.270    wigner-seitz radius (au A)                               
   ENMAX  =  293.235; ENMIN  =  219.927 eV                                                          
   ICORE  =        3    local potential                                                             
   LCOR   =        T    correct aug charges                                                         
   LPAW   =        T    paw PP                                                                      
   EAUG   =  455.659                                                                                
   DEXC   =    0.000                                                                                
   RMAX   =    2.456    core radius for proj-oper                                                   
   RAUG   =    1.300    factor for augmentation sphere                                              
   RDEP   =    2.451    radius for radial grids                                                     
   RDEPT  =    1.956    core radius for aug-charge                                                  
                                                                                                    
   Atomic configuration                                                                             
   11 entries                                                                                       
     n  l   j            E        occ.                                                              
     1  0  0.50    -18805.2457   2.0000                                                             
     2  0  0.50     -2630.2869   2.0000                                                             
     2  1  1.50     -2348.4046   6.0000                                                             
     3  0  0.50      -438.8757   2.0000                                                             
     3  1  1.50      -346.7588   6.0000                                                             
     3  2  2.50      -196.2560  10.0000                                                             
     4  0  0.50       -58.3859   2.0000                                                             
     5  0  0.50        -3.9816   1.0000                                                             
     4  1  1.50       -34.5141   6.0000                                                             
     4  2  2.50        -3.0408   4.0000                                                             
     4  3  2.50        -1.3606   0.0000                                                             
   Description                                                                                      
     l       E           TYP  RCUT    TYP  RCUT                                                     
     0    -58.3859094     23  2.200                                                                 
     0     -3.9816262     23  2.200                                                                 
     1    -34.5140738     23  2.200                                                                 
     1     13.6058260     23  2.200                                                                 
     2     -3.0408010     23  2.200                                                                 
     2     -0.1283038     23  2.200                                                                 
     3     -1.3605826     23  2.400                                                                 
  local pseudopotential read in
  partial core-charges read in
  partial kinetic energy density read in
  atomic valenz-charges read in
  non local Contribution for L=           0  read in
    real space projection operators read in
  non local Contribution for L=           0  read in
    real space projection operators read in
  non local Contribution for L=           1  read in
    real space projection operators read in
  non local Contribution for L=           1  read in
    real space projection operators read in
  non local Contribution for L=           2  read in
    real space projection operators read in
  non local Contribution for L=           2  read in
    real space projection operators read in
    PAW grid and wavefunctions read in
 
   number of l-projection  operators is LMAX  =           6
   number of lm-projection operators is LMMAX =          18
 
 POTCAR:    PAW_PBE Mo_sv 02Feb2006               
   SHA256 =  2731df97e41766cc617548c5a8267718fdef1f509ac6bafa01e745abea2bdfaa Mo_sv/POTCAR          
   COPYR  = (c) Copyright 02Feb2006 Georg Kresse                                                    
   COPYR  = This file is part of the software VASP. Any use, copying, and all other rights are regul
   COPYR  = If you do not have a valid VASP license, you may not use, copy or distribute this file. 
   VRHFIN =Mo: 4p5s4d                                                                               
   LEXCH  = PE                                                                                      
   EATOM  =  1862.2866 eV,  136.8742 Ry                                                             
                                                                                                    
   TITEL  = PAW_PBE Mo_sv 02Feb2006                                                                 
   LULTRA =        F    use ultrasoft PP ?                                                          
   IUNSCR =        1    unscreen: 0-lin 1-nonlin 2-no                                               
   RPACOR =    2.200    partial core radius                                                         
   POMASS =   95.940; ZVAL   =   14.000    mass and valenz                                          
   RCORE  =    2.500    outmost cutoff radius                                                       
   RWIGS  =    2.750; RWIGS  =    1.455    wigner-seitz radius (au A)                               
   ENMAX  =  242.676; ENMIN  =  182.007 eV                                                          
   ICORE  =        3    local potential                                                             
   LCOR   =        T    correct aug charges                                                         
   LPAW   =        T    paw PP                                                                      
   EAUG   =  446.014                                                                                
   DEXC   =    0.000                                                                                
   RMAX   =    2.563    core radius for proj-oper                                                   
   RAUG   =    1.300    factor for augmentation sphere                                              
   RDEP   =    2.641    radius for radial grids                                                     
   RDEPT  =    2.031    core radius for aug-charge                                                  
                                                                                                    
   Atomic configuration                                                                             
   11 entries                                                                                       
     n  l   j            E        occ.                                                              
     1  0  0.50    -19819.0341   2.0000                                                             
     2  0  0.50     -2799.0127   2.0000                                                             
     2  1  1.50     -2502.0276   6.0000                                                             
     3  0  0.50      -476.4449   2.0000                                                             
     3  1  1.50      -379.1496   6.0000                                                             
     3  2  2.50      -220.9367  10.0000                                                             
     4  0  0.50       -64.3378   2.0000                                                             
     5  0  0.50        -4.0862   1.0000                                                             
     4  1  1.50       -38.4773   6.0000                                                             
     4  2  2.50        -3.7535   5.0000                                                             
     4  3  2.50        -1.3606   0.0000                                                             
   Description                                                                                      
     l       E           TYP  RCUT    TYP  RCUT                                                     
     0    -64.3377829     23  2.100                                                                 
     0     -4.0861640     23  2.400                                                                 
     1    -38.4772993     23  2.100                                                                 
     1     13.6058260     23  2.100                                                                 
     2     -3.7534941     23  2.400                                                                 
     2     -5.1140767     23  2.400                                                                 
     3     -4.0817478     23  2.500                                                                 
  local pseudopotential read in
  partial core-charges read in
  partial kinetic energy density read in
  atomic valenz-charges read in
  non local Contribution for L=           0  read in
    real space projection operators read in
  non local Contribution for L=           0  read in
    real space projection operators read in
  non local Contribution for L=           1  read in
    real space projection operators read in
  non local Contribution for L=           1  read in
    real space projection operators read in
  non local Contribution for L=           2  read in
    real space projection operators read in
  non local Contribution for L=           2  read in
    real space projection operators read in
    PAW grid and wavefunctions read in
 
   number of l-projection  operators is LMAX  =           6
   number of lm-projection operators is LMMAX =          18
 
 POTCAR:    PAW_PBE Ta_pv 07Sep2000               
   SHA256 =  00d0a14a36c127416459414afb8617d9754996fffa60a2465888e660b20a452f Ta_pv/POTCAR          
   COPYR  = (c) Copyright 07Sep2000 Georg Kresse                                                    
   COPYR  = This file is part of the software VASP. Any use, copying, and all other rights are regul
   COPYR  = If you do not have a valid VASP license, you may not use, copy or distribute this file. 
   VRHFIN =Ta:  5p6s5d                                                                              
   LEXCH  = PE                                                                                      
   EATOM  =  1047.1984 eV,   76.9669 Ry                                                             
                                                                                                    
   TITEL  = PAW_PBE Ta_pv 07Sep2000                                                                 
   LULTRA =        F    use ultrasoft PP ?                                                          
   IUNSCR =        1    unscreen: 0-lin 1-nonlin 2-no                                               
   RPACOR =    2.330    partial core radius                                                         
   POMASS =  180.948; ZVAL   =   11.000    mass and valenz                                          
   RCORE  =    2.500    outmost cutoff radius                                                       
   RWIGS  =    2.840; RWIGS  =    1.503    wigner-seitz radius (au A)                               
   ENMAX  =  223.667; ENMIN  =  167.750 eV                                                          
   RCLOC  =    2.205    cutoff for local pot                                                        
   LCOR   =        T    correct aug charges                                                         
   LPAW   =        T    paw PP                                                                      
   EAUG   =  377.421                                                                                
   DEXC   =    0.000                                                                                
   RMAX   =    2.551    core radius for proj-oper                                                   
   RAUG   =    1.300    factor for augmentation sphere                                              
   RDEP   =    2.526    radius for radial grids                                                     
   RDEPT  =    2.132    core radius for aug-charge                                                  
                                                                                                    
   Atomic configuration                                                                             
   15 entries                                                                                       
     n  l   j            E        occ.                                                              
     1  0  0.50    -67341.2801   2.0000                                                             
     2  0  0.50    -11566.9369   2.0000                                                             
     2  1  1.50    -10134.1175   6.0000                                                             
     3  0  0.50     -2648.5614   2.0000                                                             
     3  1  1.50     -2222.6006   6.0000                                                             
     3  2  2.50     -1726.3114  10.0000                                                             
     4  0  0.50      -538.6957   2.0000                                                             
     4  1  1.50      -399.0125   6.0000                                                             
     4  2  2.50      -220.3955  10.0000                                                             
     4  3  3.50       -23.0371  14.0000                                                             
     5  0  0.50       -71.2900   2.0000                                                             
     5  1  1.50       -37.8224   6.0000                                                             
     5  2  2.50        -2.6455   4.0000                                                             
     6  0  0.50        -4.9623   1.0000                                                             
     5  3  2.50        -1.3606   0.0000                                                             
   Description                                                                                      
     l       E           TYP  RCUT    TYP  RCUT                                                     
     1    -37.8224449     23  2.500                                                                 
     1      1.3605826     23  2.500                                                                 
     2     -2.6454718     23  2.500                                                                 
     2     -0.6258570     23  2.500                                                                 
     0     -4.9622674     23  2.500                                                                 
     0      4.7531427     23  2.500                                                                 
  local pseudopotential read in
  partial core-charges read in
  partial kinetic energy density read in
  atomic valenz-charges read in
  non local Contribution for L=           1  read in
    real space projection operators read in
  non local Contribution for L=           1  read in
    real space projection operators read in
  non local Contribution for L=           2  read in
    real space projection operators read in
  non local Contribution for L=           2  read in
    real space projection operators read in
  non local Contribution for L=           0  read in
    real space projection operators read in
  non local Contribution for L=           0  read in
    real space projection operators read in
    PAW grid and wavefunctions read in
 
   number of l-projection  operators is LMAX  =           6
   number of lm-projection operators is LMMAX =          18
 
 POTCAR:    PAW_PBE W_sv 04Sep2015                
   SHA256 =  931c2d770f65867ef30f3db3421922900fc0890ebac5c3e12f63b6a2064023d7 W_sv/POTCAR           
   COPYR  = (c) Copyright 04Sep2015 Georg Kresse                                                    
   COPYR  = This file is part of the software VASP. Any use, copying, and all other rights are regul
   COPYR  = If you do not have a valid VASP license, you may not use, copy or distribute this file. 
   VRHFIN =W : 5p6s5d                                                                               
   LEXCH  = PE                                                                                      
   EATOM  =  1865.5791 eV,  137.1162 Ry                                                             
                                                                                                    
   TITEL  = PAW_PBE W_sv 04Sep2015                                                                  
   LULTRA =        F    use ultrasoft PP ?                                                          
   IUNSCR =        1    unscreen: 0-lin 1-nonlin 2-no                                               
   RPACOR =    2.330    partial core radius                                                         
   POMASS =  183.850; ZVAL   =   14.000    mass and valenz                                          
   RCORE  =    2.500    outmost cutoff radius                                                       
   RWIGS  =    2.750; RWIGS  =    1.455    wigner-seitz radius (au A)                               
   ENMAX  =  223.057; ENMIN  =  167.293 eV                                                          
   ICORE  =        3    local potential                                                             
   LCOR   =        T    correct aug charges                                                         
   LPAW   =        T    paw PP                                                                      
   EAUG   =  373.438                                                                                
   DEXC   =    0.000                                                                                
   RMAX   =    2.565    core radius for proj-oper                                                   
   RAUG   =    1.300    factor for augmentation sphere                                              
   RDEP   =    2.539    radius for radial grids                                                     
   RDEPT  =    2.126    core radius for aug-charge                                                  
                                                                                                    
   Atomic configuration                                                                             
   15 entries                                                                                       
     n  l   j            E        occ.                                                              
     1  0  0.50    -69465.5834   2.0000                                                             
     2  0  0.50    -11986.2640   2.0000                                                             
     2  1  1.50    -10479.8613   6.0000                                                             
     3  0  0.50     -2759.0756   2.0000                                                             
     3  1  1.50     -2313.1855   6.0000                                                             
     3  2  2.50     -1801.1183  10.0000                                                             
     4  0  0.50      -567.6789   2.0000                                                             
     4  1  1.50      -421.4692   6.0000                                                             
     4  2  2.50      -236.3471  10.0000                                                             
     4  3  3.50       -31.2665  14.0000                                                             
     5  0  0.50       -77.1084   2.0000                                                             
     6  0  0.50        -5.1438   1.0000                                                             
     5  1  1.50       -41.3856   6.0000                                                             
     5  2  2.50        -3.3185   5.0000                                                             
     5  3  2.50        -1.3606   0.0000                                                             
   Description                                                                                      
     l       E           TYP  RCUT    TYP  RCUT                                                     
     0    -77.1084470     23  2.100                                                                 
     0     -5.1437956     23  2.300                                                                 
     1    -41.3855615     23  2.500                                                                 
     1     -2.7211652     23  2.500                                                                 
     2     -3.3185025     23  2.500                                                                 
     2     -1.5965151     23  2.500                                                                 
     3     -1.3605826     23  2.500                                                                 
  local pseudopotential read in
  partial core-charges read in
  partial kinetic energy density read in
  kinetic energy density of atom read in
  atomic valenz-charges read in
  non local Contribution for L=           0  read in
    real space projection operators read in
  non local Contribution for L=           0  read in
    real space projection operators read in
  non local Contribution for L=           1  read in
    real space projection operators read in
  non local Contribution for L=           1  read in
    real space projection operators read in
  non local Contribution for L=           2  read in
    real space projection operators read in
  non local Contribution for L=           2  read in
    real space projection operators read in
    PAW grid and wavefunctions read in
 
   number of l-projection  operators is LMAX  =           6
   number of lm-projection operators is LMMAX =          18
 
 -----------------------------------------------------------------------------
|                                                                             |
|               ----> ADVICE to this user running VASP <----                  |
|                                                                             |
|     You have a (more or less) 'large supercell' and for larger cells it     |
|     might be more efficient to use real-space projection operators.         |
|     Therefore, try LREAL= Auto in the INCAR file.                           |
|     Mind: For very accurate calculation, you might also keep the            |
|     reciprocal projection scheme (i.e. LREAL=.FALSE.).                      |
|                                                                             |
 -----------------------------------------------------------------------------

  PAW_PBE Nb_sv 25May2007               :
 energy of atom  1       EATOM=-1555.1913
 kinetic energy error for atom=    0.2155 (will be added to EATOM!!)
  PAW_PBE Mo_sv 02Feb2006               :
 energy of atom  2       EATOM=-1862.2866
 kinetic energy error for atom=    0.1102 (will be added to EATOM!!)
  PAW_PBE Ta_pv 07Sep2000               :
 energy of atom  3       EATOM=-1047.1984
 kinetic energy error for atom=    0.0394 (will be added to EATOM!!)
  PAW_PBE W_sv 04Sep2015                :
 energy of atom  4       EATOM=-1865.5791
 kinetic energy error for atom=    0.0589 (will be added to EATOM!!)
 
 
 POSCAR: Nb-Mo-Ta-W alloy
  positions in direct lattice
  No initial velocities read in
 exchange correlation table for  LEXCH =        8
   RHO(1)=    0.500       N(1)  =     2000
   RHO(2)=  100.500       N(2)  =     4000
 


--------------------------------------------------------------------------------------------------------


 ion  position               nearest neighbor table
   1  0.125  0.750  0.250-   5 2.85   6 2.85   8 2.85  13 2.85  19 2.85  24 2.85  28 2.85  31 2.85
                            22 3.29
   2  0.750  0.000  0.000-   3 2.85   4 2.85  10 2.85  14 2.85  15 2.85  21 2.85  22 2.85  30 2.85

   3  0.625  0.750  0.250-   2 2.85   9 2.85  12 2.85  18 2.85  25 2.85  27 2.85  29 2.85  32 2.85
                            22 3.29
   4  0.875  0.750  0.750-   2 2.85   8 2.85   9 2.85  24 2.85  27 2.85  28 2.85  31 2.85  32 2.85
                            22 3.29  22 3.29
   5  0.250  0.500  0.000-   1 2.85   7 2.85  11 2.85  16 2.85  17 2.85  20 2.85  23 2.85  26 2.85

   6  0.250  0.000  0.000-   1 2.85   7 2.85  11 2.85  16 2.85  17 2.85  20 2.85  23 2.85  26 2.85

   7  0.125  0.750  0.750-   5 2.85   6 2.85   8 2.85  13 2.85  19 2.85  24 2.85  28 2.85  31 2.85
                            20 3.29  20 3.29
   8  0.000  0.500  0.000-   1 2.85   4 2.85   7 2.85  14 2.85  20 2.85  21 2.85  22 2.85  26 2.85

   9  0.750  0.500  0.500-   3 2.85   4 2.85  10 2.85  14 2.85  15 2.85  21 2.85  22 2.85  30 2.85
                            25 3.29
  10  0.625  0.250  0.250-   2 2.85   9 2.85  12 2.85  18 2.85  25 2.85  27 2.85  29 2.85  32 2.85
                            21 3.29
  11  0.375  0.750  0.750-   5 2.85   6 2.85  12 2.85  13 2.85  18 2.85  19 2.85  25 2.85  29 2.85
                            23 3.29  23 3.29
  12  0.500  0.500  0.000-   3 2.85  10 2.85  11 2.85  15 2.85  16 2.85  17 2.85  23 2.85  30 2.85
                            29 3.29  25 3.29  32 3.29  25 3.29  29 3.29
  13  0.250  0.500  0.500-   1 2.85   7 2.85  11 2.85  16 2.85  17 2.85  20 2.85  23 2.85  26 2.85
                            25 3.29  19 3.29  31 3.29  19 3.29
  14  0.875  0.250  0.750-   2 2.85   8 2.85   9 2.85  24 2.85  27 2.85  28 2.85  31 2.85  32 2.85
                            21 3.29  15 3.29  20 3.29  21 3.29
  15  0.625  0.250  0.750-   2 2.85   9 2.85  12 2.85  18 2.85  25 2.85  27 2.85  29 2.85  32 2.85
                            14 3.29  30 3.29  23 3.29  30 3.29
  16  0.375  0.250  0.250-   5 2.85   6 2.85  12 2.85  13 2.85  18 2.85  19 2.85  25 2.85  29 2.85
                            17 3.29  26 3.29  23 3.29  23 3.29  17 3.29
  17  0.375  0.750  0.250-   5 2.85   6 2.85  12 2.85  13 2.85  18 2.85  19 2.85  25 2.85  29 2.85
                            16 3.29  16 3.29
  18  0.500  0.000  0.500-   3 2.85  10 2.85  11 2.85  15 2.85  16 2.85  17 2.85  23 2.85  30 2.85
                            25 3.29  27 3.29  29 3.29  19 3.29  29 3.29  25 3.29
  19  0.250  0.000  0.500-   1 2.85   7 2.85  11 2.85  16 2.85  17 2.85  20 2.85  23 2.85  26 2.85
                            18 3.29  24 3.29  13 3.29  13 3.29
  20  0.125  0.250  0.750-   5 2.85   6 2.85   8 2.85  13 2.85  19 2.85  24 2.85  28 2.85  31 2.85
                            14 3.29  26 3.29   7 3.29  23 3.29  26 3.29   7 3.29
  21  0.875  0.250  0.250-   2 2.85   8 2.85   9 2.85  24 2.85  27 2.85  28 2.85  31 2.85  32 2.85
                            14 3.29  22 3.29  10 3.29  26 3.29  14 3.29  22 3.29
  22  0.875  0.750  0.250-   2 2.85   8 2.85   9 2.85  24 2.85  27 2.85  28 2.85  31 2.85  32 2.85
                             1 3.29   3 3.29  21 3.29   4 3.29   4 3.29  21 3.29
  23  0.375  0.250  0.750-   5 2.85   6 2.85  12 2.85  13 2.85  18 2.85  19 2.85  25 2.85  29 2.85
                            15 3.29  20 3.29  16 3.29  11 3.29  16 3.29  11 3.29
  24  0.000  0.000  0.500-   1 2.85   4 2.85   7 2.85  14 2.85  20 2.85  21 2.85  22 2.85  26 2.85
                            19 3.29  27 3.29  28 3.29  31 3.29  28 3.29  31 3.29
  25  0.500  0.500  0.500-   3 2.85  10 2.85  11 2.85  15 2.85  16 2.85  17 2.85  23 2.85  30 2.85
                            13 3.29  18 3.29   9 3.29  12 3.29  12 3.29  18 3.29
  26  0.125  0.250  0.250-   5 2.85   6 2.85   8 2.85  13 2.85  19 2.85  24 2.85  28 2.85  31 2.85
                            16 3.29  20 3.29  21 3.29  20 3.29
  27  0.750  0.000  0.500-   3 2.85   4 2.85  10 2.85  14 2.85  15 2.85  21 2.85  22 2.85  30 2.85
                            24 3.29  18 3.29
  28  0.000  0.000  0.000-   1 2.85   4 2.85   7 2.85  14 2.85  20 2.85  21 2.85  22 2.85  26 2.85
                            24 3.29  24 3.29
  29  0.500  0.000  0.000-   3 2.85  10 2.85  11 2.85  15 2.85  16 2.85  17 2.85  23 2.85  30 2.85
                            12 3.29  18 3.29  18 3.29  12 3.29
  30  0.625  0.750  0.750-   2 2.85   9 2.85  12 2.85  18 2.85  25 2.85  27 2.85  29 2.85  32 2.85
                            15 3.29  15 3.29
  31  0.000  0.500  0.500-   1 2.85   4 2.85   7 2.85  14 2.85  20 2.85  21 2.85  22 2.85  26 2.85
                            24 3.29  13 3.29  24 3.29
  32  0.750  0.500  0.000-   3 2.85   4 2.85  10 2.85  14 2.85  15 2.85  21 2.85  22 2.85  30 2.85
                            12 3.29
 
  LATTYP: Found a simple tetragonal cell.
 ALAT       =     6.5800000000
 C/A-ratio  =     2.0000000000
  
  Lattice vectors:
  
 A1 = (   0.0000000000,   6.5800000000,   0.0000000000)
 A2 = (   0.0000000000,   0.0000000000,   6.5800000000)
 A3 = (  13.1600000000,   0.0000000000,   0.0000000000)


Analysis of symmetry for initial positions (statically):
=====================================================================
 Subroutine PRICEL returns:
 Original cell was already a primitive cell.
 

 Routine SETGRP: Setting up the symmetry group for a 
 simple tetragonal supercell.


 Subroutine GETGRP returns: Found  1 space group operations
 (whereof  1 operations were pure point group operations)
 out of a pool of 16 trial point group operations.


The static configuration has the point symmetry C_1 .


Analysis of symmetry for dynamics (positions and initial velocities):
=====================================================================
 Subroutine PRICEL returns:
 Original cell was already a primitive cell.
 

 Routine SETGRP: Setting up the symmetry group for a 
 simple tetragonal supercell.


 Subroutine GETGRP returns: Found  1 space group operations
 (whereof  1 operations were pure point group operations)
 out of a pool of 16 trial point group operations.


The dynamic configuration has the point symmetry C_1 .


 Subroutine INISYM returns: Found  1 space group operations
 (whereof  1 operations are pure point group operations),
 and found     1 'primitive' translations


----------------------------------------------------------------------------------------

                                     Primitive cell                                     

  volume of cell :     569.7806

  direct lattice vectors                    reciprocal lattice vectors
    13.160000000  0.000000000  0.000000000     0.075987842  0.000000000  0.000000000
     0.000000000  6.580000000  0.000000000     0.000000000  0.151975684  0.000000000
     0.000000000  0.000000000  6.580000000     0.000000000  0.000000000  0.151975684

  length of vectors
    13.160000000  6.580000000  6.580000000     0.075987842  0.151975684  0.151975684

  position of ions in fractional coordinates (direct lattice)
     0.125000000  0.750000000  0.250000000
     0.750000000  0.000000000  0.000000000
     0.625000000  0.750000000  0.250000000
     0.875000000  0.750000000  0.750000000
     0.250000000  0.500000000  0.000000000
     0.250000000  0.000000000  0.000000000
     0.125000000  0.750000000  0.750000000
     0.000000000  0.500000000  0.000000000
     0.750000000  0.500000000  0.500000000
     0.625000000  0.250000000  0.250000000
     0.375000000  0.750000000  0.750000000
     0.500000000  0.500000000  0.000000000
     0.250000000  0.500000000  0.500000000
     0.875000000  0.250000000  0.750000000
     0.625000000  0.250000000  0.750000000
     0.375000000  0.250000000  0.250000000
     0.375000000  0.750000000  0.250000000
     0.500000000  0.000000000  0.500000000
     0.250000000  0.000000000  0.500000000
     0.125000000  0.250000000  0.750000000
     0.875000000  0.250000000  0.250000000
     0.875000000  0.750000000  0.250000000
     0.375000000  0.250000000  0.750000000
     0.000000000  0.000000000  0.500000000
     0.500000000  0.500000000  0.500000000
     0.125000000  0.250000000  0.250000000
     0.750000000  0.000000000  0.500000000
     0.000000000  0.000000000  0.000000000
     0.500000000  0.000000000  0.000000000
     0.625000000  0.750000000  0.750000000
     0.000000000  0.500000000  0.500000000
     0.750000000  0.500000000  0.000000000

  ion indices of the primitive-cell ions
   primitive index   ion index
                 1           1
                 2           2
                 3           3
                 4           4
                 5           5
                 6           6
                 7           7
                 8           8
                 9           9
                10          10
                11          11
                12          12
                13          13
                14          14
                15          15
                16          16
                17          17
                18          18
                19          19
                20          20
                21          21
                22          22
                23          23
                24          24
                25          25
                26          26
                27          27
                28          28
                29          29
                30          30
                31          31
                32          32

----------------------------------------------------------------------------------------

 
 
 KPOINTS: K-Spacing Value to Generate K-Mesh: 0.03

Automatic generation of k-mesh.
 Grid dimensions read from file:
 generate k-points for:    3    5    5

 Generating k-lattice:

  Cartesian coordinates                     Fractional coordinates (reciprocal lattice)
     0.025329281  0.000000000  0.000000000     0.333333333  0.000000000  0.000000000
     0.000000000  0.030395137  0.000000000     0.000000000  0.200000000  0.000000000
     0.000000000  0.000000000  0.030395137     0.000000000  0.000000000  0.200000000

  Length of vectors
     0.025329281  0.030395137  0.030395137

  Shift w.r.t. Gamma in fractional coordinates (k-lattice)
     0.000000000  0.000000000  0.000000000

 
 Subroutine IBZKPT returns following result:
 ===========================================
 
 Found     38 irreducible k-points:
 
 Following reciprocal coordinates:
            Coordinates               Weight
  0.000000  0.000000  0.000000      1.000000
  0.333333  0.000000  0.000000      2.000000
  0.000000  0.200000  0.000000      2.000000
  0.000000  0.000000  0.200000      2.000000
  0.333333  0.200000  0.000000      2.000000
  0.333333  0.000000  0.200000      2.000000
  0.333333 -0.200000  0.000000      2.000000
  0.333333  0.000000 -0.200000      2.000000
  0.000000  0.400000  0.000000      2.000000
  0.000000  0.000000  0.400000      2.000000
  0.333333  0.400000  0.000000      2.000000
  0.333333  0.000000  0.400000      2.000000
  0.333333 -0.400000  0.000000      2.000000
  0.333333  0.000000 -0.400000      2.000000
  0.000000  0.200000  0.200000      2.000000
  0.000000 -0.200000  0.200000      2.000000
  0.333333  0.200000  0.200000      2.000000
  0.333333 -0.200000  0.200000      2.000000
  0.333333 -0.200000 -0.200000      2.000000
  0.333333  0.200000 -0.200000      2.000000
  0.000000  0.400000  0.200000      2.000000
  0.000000 -0.200000  0.400000      2.000000
  0.000000 -0.400000  0.200000      2.000000
  0.000000  0.200000  0.400000      2.000000
  0.333333  0.400000  0.200000      2.000000
  0.333333 -0.200000  0.400000      2.000000
  0.333333 -0.400000 -0.200000      2.000000
  0.333333  0.200000 -0.400000      2.000000
 -0.333333 -0.400000  0.200000      2.000000
 -0.333333  0.200000  0.400000      2.000000
 -0.333333  0.400000 -0.200000      2.000000
 -0.333333 -0.200000 -0.400000      2.000000
  0.000000  0.400000  0.400000      2.000000
  0.000000 -0.400000  0.400000      2.000000
  0.333333  0.400000  0.400000      2.000000
  0.333333 -0.400000  0.400000      2.000000
  0.333333 -0.400000 -0.400000      2.000000
  0.333333  0.400000 -0.400000      2.000000
 
 Following cartesian coordinates:
            Coordinates               Weight
  0.000000  0.000000  0.000000      1.000000
  0.025329  0.000000  0.000000      2.000000
  0.000000  0.030395  0.000000      2.000000
  0.000000  0.000000  0.030395      2.000000
  0.025329  0.030395  0.000000      2.000000
  0.025329  0.000000  0.030395      2.000000
  0.025329 -0.030395  0.000000      2.000000
  0.025329  0.000000 -0.030395      2.000000
  0.000000  0.060790  0.000000      2.000000
  0.000000  0.000000  0.060790      2.000000
  0.025329  0.060790  0.000000      2.000000
  0.025329  0.000000  0.060790      2.000000
  0.025329 -0.060790  0.000000      2.000000
  0.025329  0.000000 -0.060790      2.000000
  0.000000  0.030395  0.030395      2.000000
  0.000000 -0.030395  0.030395      2.000000
  0.025329  0.030395  0.030395      2.000000
  0.025329 -0.030395  0.030395      2.000000
  0.025329 -0.030395 -0.030395      2.000000
  0.025329  0.030395 -0.030395      2.000000
  0.000000  0.060790  0.030395      2.000000
  0.000000 -0.030395  0.060790      2.000000
  0.000000 -0.060790  0.030395      2.000000
  0.000000  0.030395  0.060790      2.000000
  0.025329  0.060790  0.030395      2.000000
  0.025329 -0.030395  0.060790      2.000000
  0.025329 -0.060790 -0.030395      2.000000
  0.025329  0.030395 -0.060790      2.000000
 -0.025329 -0.060790  0.030395      2.000000
 -0.025329  0.030395  0.060790      2.000000
 -0.025329  0.060790 -0.030395      2.000000
 -0.025329 -0.030395 -0.060790      2.000000
  0.000000  0.060790  0.060790      2.000000
  0.000000 -0.060790  0.060790      2.000000
  0.025329  0.060790  0.060790      2.000000
  0.025329 -0.060790  0.060790      2.000000
  0.025329 -0.060790 -0.060790      2.000000
  0.025329  0.060790 -0.060790      2.000000
 


--------------------------------------------------------------------------------------------------------




 Dimension of arrays:
   k-points           NKPTS =     38   k-points in BZ     NKDIM =     38   number of bands    NBANDS=    252
   number of dos      NEDOS =    301   number of ions     NIONS =     32
   non local maximal  LDIM  =      6   non local SUM 2l+1 LMDIM =     18
   total plane-waves  NPLWV =  90720
   max r-space proj   IRMAX =      1   max aug-charges    IRDMAX=   9287
   dimension x,y,z NGX =    70 NGY =   36 NGZ =   36
   dimension x,y,z NGXF=   140 NGYF=   72 NGZF=   72
   support grid    NGXF=   140 NGYF=   72 NGZF=   72
   ions per type =              11   8   6   7
   NGX,Y,Z   is equivalent  to a cutoff of   8.84,  9.10,  9.10 a.u.
   NGXF,Y,Z  is equivalent  to a cutoff of  17.69, 18.19, 18.19 a.u.

 SYSTEM =  unknown system                          
 POSCAR =  Nb-Mo-Ta-W alloy                        

 Startparameter for this run:
   NWRITE =      2    write-flag & timer
   PREC   = accura    normal or accurate (medium, high low for compatibility)
   ISTART =      0    job   : 0-new  1-cont  2-samecut
   ICHARG =      2    charge: 1-file 2-atom 10-const
   ISPIN  =      1    spin polarized calculation?
   LNONCOLLINEAR =      F non collinear calculations
   LSORBIT =      F    spin-orbit coupling
   INIWAV =      1    electr: 0-lowe 1-rand  2-diag
   LASPH  =      F    aspherical Exc in radial PAW
 Electronic Relaxation 1
   ENCUT  =  250.0 eV  18.37 Ry    4.29 a.u.  16.97  8.48  8.48*2*pi/ulx,y,z
   ENINI  =  250.0     initial cutoff
   ENAUG  =  455.7 eV  augmentation charge cutoff
   NELM   =     80;   NELMIN=  2; NELMDL= -5     # of ELM steps 
   EDIFF  = 0.1E-07   stopping-criterion for ELM
   LREAL  =      F    real-space projection
   NLSPLINE    = F    spline interpolate recip. space projectors
   LCOMPAT=      F    compatible to vasp.4.4
   GGA_COMPAT  = T    GGA compatible to vasp.4.4-vasp.4.6
   LMAXPAW     = -100 max onsite density
   LMAXMIX     =    2 max onsite mixed and CHGCAR
   VOSKOWN=      0    Vosko Wilk Nusair interpolation
   ROPT   =    0.00000   0.00000   0.00000   0.00000
 Ionic relaxation
   EDIFFG = -.1E-01   stopping-criterion for IOM
   NSW    =      0    number of steps for IOM
   NBLOCK =      1;   KBLOCK =      1    inner block; outer block 
   IBRION =     -1    ionic relax: 0-MD 1-quasi-New 2-CG
   NFREE  =      0    steps in history (QN), initial steepest desc. (CG)
   ISIF   =      2    stress and relaxation
   IWAVPR =     10    prediction:  0-non 1-charg 2-wave 3-comb
   ISYM   =      2    0-nonsym 1-usesym 2-fastsym
   LCORR  =      T    Harris-Foulkes like correction to forces

   POTIM  = 0.5000    time-step for ionic-motion
   TEIN   =    0.0    initial temperature
   TEBEG  =    0.0;   TEEND  =   0.0 temperature during run
   SMASS  =  -3.00    Nose mass-parameter (am)
   estimated Nose-frequenzy (Omega)   =  0.10E-29 period in steps = 0.13E+47 mass=  -0.396E-26a.u.
   SCALEE = 1.0000    scale energy and forces
   NPACO  =    256;   APACO  = 10.0  distance and # of slots for P.C.
   PSTRESS=    0.0 pullay stress

  Mass of Ions in am
   POMASS =  92.91 95.94180.95183.85
  Ionic Valenz
   ZVAL   =  13.00 14.00 11.00 14.00
  Atomic Wigner-Seitz radii
   RWIGS  =  -1.00 -1.00 -1.00 -1.00
  virtual crystal weights 
   VCA    =   1.00  1.00  1.00  1.00
   NELECT =     419.0000    total number of electrons
   NUPDOWN=      -1.0000    fix difference up-down

 DOS related values:
   EMIN   =  10.00;   EMAX   =-10.00  energy-range for DOS
   EFERMI =   0.00
   ISMEAR =     0;   SIGMA  =   0.02  broadening in eV -4-tet -1-fermi 0-gaus

 Electronic relaxation 2 (details)
   IALGO  =     38    algorithm
   LDIAG  =      T    sub-space diagonalisation (order eigenvalues)
   LSUBROT=      F    optimize rotation matrix (better conditioning)
   TURBO    =      0    0=normal 1=particle mesh
   IRESTART =      0    0=no restart 2=restart with 2 vectors
   NREBOOT  =      0    no. of reboots
   NMIN     =      0    reboot dimension
   EREF     =   0.00    reference energy to select bands
   IMIX   =      4    mixing-type and parameters
     AMIX     =   0.40;   BMIX     =  1.00
     AMIX_MAG =   1.60;   BMIX_MAG =  1.00
     AMIN     =   0.10
     WC   =   100.;   INIMIX=   1;  MIXPRE=   1;  MAXMIX= -45

 Intra band minimization:
   WEIMIN = 0.0000     energy-eigenvalue tresh-hold
   EBREAK =  0.99E-11  absolut break condition
   DEPER  =   0.30     relativ break condition  

   TIME   =   0.40     timestep for ELM

  volume/ion in A,a.u.               =      17.81       120.16
  Fermi-wavevector in a.u.,A,eV,Ry     =   1.477668  2.792388 29.708369  2.183504
  Thomas-Fermi vector in A             =   2.592044
 
 Write flags
   LWAVE        =      F    write WAVECAR
   LDOWNSAMPLE  =      F    k-point downsampling of WAVECAR
   LCHARG       =      F    write CHGCAR
   LVTOT        =      F    write LOCPOT, total local potential
   LVHAR        =      F    write LOCPOT, Hartree potential only
   LELF         =      F    write electronic localiz. function (ELF)
   LORBIT       =      0    0 simple, 1 ext, 2 COOP (PROOUT), +10 PAW based schemes


 Dipole corrections
   LMONO  =      F    monopole corrections only (constant potential shift)
   LDIPOL =      F    correct potential (dipole corrections)
   IDIPOL =      0    1-x, 2-y, 3-z, 4-all directions 
   EPSILON=  1.0000000 bulk dielectric constant

 Core level calculations are selected ICORELEVEL =  1
 Exchange correlation treatment:
   GGA     =    PE    GGA type
   LEXCH   =     8    internal setting for exchange type
   LIBXC   =     F    Libxc                    
   VOSKOWN =     0    Vosko Wilk Nusair interpolation
   LHFCALC =     F    Hartree Fock is set to
   LHFONE  =     F    Hartree Fock one center treatment
   AEXX    =    0.0000 exact exchange contribution

 Linear response parameters
   LEPSILON=     F    determine dielectric tensor
   LRPA    =     F    only Hartree local field effects (RPA)
   LNABLA  =     F    use nabla operator in PAW spheres
   LVEL    =     F    velocity operator in full k-point grid
   CSHIFT  =0.1000    complex shift for real part using Kramers Kronig
   OMEGAMAX=  -1.0    maximum frequency
   DEG_THRESHOLD= 0.2000000E-02 threshold for treating states as degnerate
   RTIME   =   -0.100 relaxation time in fs
  (WPLASMAI=    0.000 imaginary part of plasma frequency in eV, 0.658/RTIME)
   DFIELD  = 0.0000000 0.0000000 0.0000000 field for delta impulse in time
 
  Optional k-point grid parameters
   LKPOINTS_OPT  =     F    use optional k-point grid
   KPOINTS_OPT_MODE=     1    mode for optional k-point grid
 
 Orbital magnetization related:
   ORBITALMAG=     F  switch on orbital magnetization
   LCHIMAG   =     F  perturbation theory with respect to B field
   DQ        =  0.001000  dq finite difference perturbation B field
   LLRAUG    =     F  two centre corrections for induced B field



--------------------------------------------------------------------------------------------------------


 Static calculation
 charge density and potential will be updated during run
 non-spin polarized calculation
 Variant of blocked Davidson
 Davidson routine will perform the subspace rotation
 perform sub-space diagonalisation
    after iterative eigenvector-optimisation
 modified Broyden-mixing scheme, WC =      100.0
 initial mixing is a Kerker type mixing with AMIX =  0.4000 and BMIX =      1.0000
 Hartree-type preconditioning will be used
 using additional bands           42
 reciprocal scheme for non local part
 use partial core corrections
 calculate Harris-corrections to forces 
   (improved forces if not selfconsistent)
 use gradient corrections 
 use of overlap-Matrix (Vanderbilt PP)
 Gauss-broadening in eV      SIGMA  =   0.02


--------------------------------------------------------------------------------------------------------


  energy-cutoff  :      250.00
  volume of cell :      569.78
      direct lattice vectors                 reciprocal lattice vectors
    13.160000000  0.000000000  0.000000000     0.075987842  0.000000000  0.000000000
     0.000000000  6.580000000  0.000000000     0.000000000  0.151975684  0.000000000
     0.000000000  0.000000000  6.580000000     0.000000000  0.000000000  0.151975684

  length of vectors
    13.160000000  6.580000000  6.580000000     0.075987842  0.151975684  0.151975684


 
 k-points in units of 2pi/SCALE and weight: K-Spacing Value to Generate K-Mesh: 0.03
   0.00000000  0.00000000  0.00000000       0.013
   0.02532928  0.00000000  0.00000000       0.027
   0.00000000  0.03039514  0.00000000       0.027
   0.00000000  0.00000000  0.03039514       0.027
   0.02532928  0.03039514  0.00000000       0.027
   0.02532928  0.00000000  0.03039514       0.027
   0.02532928 -0.03039514  0.00000000       0.027
   0.02532928  0.00000000 -0.03039514       0.027
   0.00000000  0.06079027  0.00000000       0.027
   0.00000000  0.00000000  0.06079027       0.027
   0.02532928  0.06079027  0.00000000       0.027
   0.02532928  0.00000000  0.06079027       0.027
   0.02532928 -0.06079027  0.00000000       0.027
   0.02532928  0.00000000 -0.06079027       0.027
   0.00000000  0.03039514  0.03039514       0.027
   0.00000000 -0.03039514  0.03039514       0.027
   0.02532928  0.03039514  0.03039514       0.027
   0.02532928 -0.03039514  0.03039514       0.027
   0.02532928 -0.03039514 -0.03039514       0.027
   0.02532928  0.03039514 -0.03039514       0.027
   0.00000000  0.06079027  0.03039514       0.027
   0.00000000 -0.03039514  0.06079027       0.027
   0.00000000 -0.06079027  0.03039514       0.027
   0.00000000  0.03039514  0.06079027       0.027
   0.02532928  0.06079027  0.03039514       0.027
   0.02532928 -0.03039514  0.06079027       0.027
   0.02532928 -0.06079027 -0.03039514       0.027
   0.02532928  0.03039514 -0.06079027       0.027
  -0.02532928 -0.06079027  0.03039514       0.027
  -0.02532928  0.03039514  0.06079027       0.027
  -0.02532928  0.06079027 -0.03039514       0.027
  -0.02532928 -0.03039514 -0.06079027       0.027
   0.00000000  0.06079027  0.06079027       0.027
   0.00000000 -0.06079027  0.06079027       0.027
   0.02532928  0.06079027  0.06079027       0.027
   0.02532928 -0.06079027  0.06079027       0.027
   0.02532928 -0.06079027 -0.06079027       0.027
   0.02532928  0.06079027 -0.06079027       0.027
 
 k-points in reciprocal lattice and weights: K-Spacing Value to Generate K-Mesh: 0.03
   0.00000000  0.00000000  0.00000000       0.013
   0.33333333  0.00000000  0.00000000       0.027
   0.00000000  0.20000000  0.00000000       0.027
   0.00000000  0.00000000  0.20000000       0.027
   0.33333333  0.20000000  0.00000000       0.027
   0.33333333  0.00000000  0.20000000       0.027
   0.33333333 -0.20000000  0.00000000       0.027
   0.33333333  0.00000000 -0.20000000       0.027
   0.00000000  0.40000000  0.00000000       0.027
   0.00000000  0.00000000  0.40000000       0.027
   0.33333333  0.40000000  0.00000000       0.027
   0.33333333  0.00000000  0.40000000       0.027
   0.33333333 -0.40000000  0.00000000       0.027
   0.33333333  0.00000000 -0.40000000       0.027
   0.00000000  0.20000000  0.20000000       0.027
   0.00000000 -0.20000000  0.20000000       0.027
   0.33333333  0.20000000  0.20000000       0.027
   0.33333333 -0.20000000  0.20000000       0.027
   0.33333333 -0.20000000 -0.20000000       0.027
   0.33333333  0.20000000 -0.20000000       0.027
   0.00000000  0.40000000  0.20000000       0.027
   0.00000000 -0.20000000  0.40000000       0.027
   0.00000000 -0.40000000  0.20000000       0.027
   0.00000000  0.20000000  0.40000000       0.027
   0.33333333  0.40000000  0.20000000       0.027
   0.33333333 -0.20000000  0.40000000       0.027
   0.33333333 -0.40000000 -0.20000000       0.027
   0.33333333  0.20000000 -0.40000000       0.027
  -0.33333333 -0.40000000  0.20000000       0.027
  -0.33333333  0.20000000  0.40000000       0.027
  -0.33333333  0.40000000 -0.20000000       0.027
  -0.33333333 -0.20000000 -0.40000000       0.027
   0.00000000  0.40000000  0.40000000       0.027
   0.00000000 -0.40000000  0.40000000       0.027
   0.33333333  0.40000000  0.40000000       0.027
   0.33333333 -0.40000000  0.40000000       0.027
   0.33333333 -0.40000000 -0.40000000       0.027
   0.33333333  0.40000000 -0.40000000       0.027
 
 position of ions in fractional coordinates (direct lattice) 
   0.12500000  0.75000000  0.25000000
   0.75000000  0.00000000  0.00000000
   0.62500000  0.75000000  0.25000000
   0.87500000  0.75000000  0.75000000
   0.25000000  0.50000000  0.00000000
   0.25000000  0.00000000  0.00000000
   0.12500000  0.75000000  0.75000000
   0.00000000  0.50000000  0.00000000
   0.75000000  0.50000000  0.50000000
   0.62500000  0.25000000  0.25000000
   0.37500000  0.75000000  0.75000000
   0.50000000  0.50000000  0.00000000
   0.25000000  0.50000000  0.50000000
   0.87500000  0.25000000  0.75000000
   0.62500000  0.25000000  0.75000000
   0.37500000  0.25000000  0.25000000
   0.37500000  0.75000000  0.25000000
   0.50000000  0.00000000  0.50000000
   0.25000000  0.00000000  0.50000000
   0.12500000  0.25000000  0.75000000
   0.87500000  0.25000000  0.25000000
   0.87500000  0.75000000  0.25000000
   0.37500000  0.25000000  0.75000000
   0.00000000  0.00000000  0.50000000
   0.50000000  0.50000000  0.50000000
   0.12500000  0.25000000  0.25000000
   0.75000000  0.00000000  0.50000000
   0.00000000  0.00000000  0.00000000
   0.50000000  0.00000000  0.00000000
   0.62500000  0.75000000  0.75000000
   0.00000000  0.50000000  0.50000000
   0.75000000  0.50000000  0.00000000
 
 position of ions in cartesian coordinates  (Angst):
   1.64500000  4.93500000  1.64500000
   9.87000000  0.00000000  0.00000000
   8.22500000  4.93500000  1.64500000
  11.51500000  4.93500000  4.93500000
   3.29000000  3.29000000  0.00000000
   3.29000000  0.00000000  0.00000000
   1.64500000  4.93500000  4.93500000
   0.00000000  3.29000000  0.00000000
   9.87000000  3.29000000  3.29000000
   8.22500000  1.64500000  1.64500000
   4.93500000  4.93500000  4.93500000
   6.58000000  3.29000000  0.00000000
   3.29000000  3.29000000  3.29000000
  11.51500000  1.64500000  4.93500000
   8.22500000  1.64500000  4.93500000
   4.93500000  1.64500000  1.64500000
   4.93500000  4.93500000  1.64500000
   6.58000000  0.00000000  3.29000000
   3.29000000  0.00000000  3.29000000
   1.64500000  1.64500000  4.93500000
  11.51500000  1.64500000  1.64500000
  11.51500000  4.93500000  1.64500000
   4.93500000  1.64500000  4.93500000
   0.00000000  0.00000000  3.29000000
   6.58000000  3.29000000  3.29000000
   1.64500000  1.64500000  1.64500000
   9.87000000  0.00000000  3.29000000
   0.00000000  0.00000000  0.00000000
   6.58000000  0.00000000  0.00000000
   8.22500000  4.93500000  4.93500000
   0.00000000  3.29000000  3.29000000
   9.87000000  3.29000000  0.00000000
 


--------------------------------------------------------------------------------------------------------


 k-point   1 :   0.0000 0.0000 0.0000  plane waves:    5077
 k-point   2 :   0.3333 0.0000 0.0000  plane waves:    5118
 k-point   3 :   0.0000 0.2000 0.0000  plane waves:    5099
 k-point   4 :   0.0000 0.0000 0.2000  plane waves:    5099
 k-point   5 :   0.3333 0.2000 0.0000  plane waves:    5140
 k-point   6 :   0.3333 0.0000 0.2000  plane waves:    5140
 k-point   7 :   0.3333-0.2000 0.0000  plane waves:    5140
 k-point   8 :   0.3333 0.0000-0.2000  plane waves:    5140
 k-point   9 :   0.0000 0.4000 0.0000  plane waves:    5119
 k-point  10 :   0.0000 0.0000 0.4000  plane waves:    5119
 k-point  11 :   0.3333 0.4000 0.0000  plane waves:    5127
 k-point  12 :   0.3333 0.0000 0.4000  plane waves:    5127
 k-point  13 :   0.3333-0.4000 0.0000  plane waves:    5127
 k-point  14 :   0.3333 0.0000-0.4000  plane waves:    5127
 k-point  15 :   0.0000 0.2000 0.2000  plane waves:    5124
 k-point  16 :   0.0000-0.2000 0.2000  plane waves:    5124
 k-point  17 :   0.3333 0.2000 0.2000  plane waves:    5117
 k-point  18 :   0.3333-0.2000 0.2000  plane waves:    5117
 k-point  19 :   0.3333-0.2000-0.2000  plane waves:    5117
 k-point  20 :   0.3333 0.2000-0.2000  plane waves:    5117
 k-point  21 :   0.0000 0.4000 0.2000  plane waves:    5118
 k-point  22 :   0.0000-0.2000 0.4000  plane waves:    5118
 k-point  23 :   0.0000-0.4000 0.2000  plane waves:    5118
 k-point  24 :   0.0000 0.2000 0.4000  plane waves:    5118
 k-point  25 :   0.3333 0.4000 0.2000  plane waves:    5105
 k-point  26 :   0.3333-0.2000 0.4000  plane waves:    5105
 k-point  27 :   0.3333-0.4000-0.2000  plane waves:    5105
 k-point  28 :   0.3333 0.2000-0.4000  plane waves:    5105
 k-point  29 :  -0.3333-0.4000 0.2000  plane waves:    5105
 k-point  30 :  -0.3333 0.2000 0.4000  plane waves:    5105
 k-point  31 :  -0.3333 0.4000-0.2000  plane waves:    5105
 k-point  32 :  -0.3333-0.2000-0.4000  plane waves:    5105
 k-point  33 :   0.0000 0.4000 0.4000  plane waves:    5098
 k-point  34 :   0.0000-0.4000 0.4000  plane waves:    5098
 k-point  35 :   0.3333 0.4000 0.4000  plane waves:    5088
 k-point  36 :   0.3333-0.4000 0.4000  plane waves:    5088
 k-point  37 :   0.3333-0.4000-0.4000  plane waves:    5088
 k-point  38 :   0.3333 0.4000-0.4000  plane waves:    5088

 maximum and minimum number of plane-waves per node :       464      388

 maximum number of plane-waves:      5140
 maximum index in each direction: 
   IXMAX=   17   IYMAX=    8   IZMAX=    8
   IXMIN=  -17   IYMIN=   -8   IZMIN=   -8


 parallel 3D FFT for wavefunctions:
    minimum data exchange during FFTs selected (reduces bandwidth)
 parallel 3D FFT for charge:
    minimum data exchange during FFTs selected (reduces bandwidth)


 total amount of memory used by VASP MPI-rank0    61379. kBytes
=======================================================================

   base      :      30000. kBytes
   nonl-proj :       9945. kBytes
   fftplans  :        778. kBytes
   grid      :       1458. kBytes
   one-center:         46. kBytes
   wavefun   :      19152. kBytes
 
     INWAV:  cpu time      0.0000: real time      0.0001
 Broyden mixing: mesh for mixing (old mesh)
   NGX = 33   NGY = 17   NGZ = 17
  (NGX  =140   NGY  = 72   NGZ  = 72)
  gives a total of   9537 points

 initial charge density was supplied:
 charge density of overlapping atoms calculated
 number of electron     419.0000000 magnetization 
 keeping initial charge density in first step


--------------------------------------------------------------------------------------------------------


 Maximum index for augmentation-charges          517 (set IRDMAX)


--------------------------------------------------------------------------------------------------------


 First call to EWALD:  gamma=   0.214
 Maximum number of real-space cells 2x 3x 3
 Maximum number of reciprocal cells 4x 2x 2

    FEWALD:  cpu time      0.1099: real time      0.1102


--------------------------------------- Iteration      1(   1)  ---------------------------------------


    POTLOK:  cpu time      0.4291: real time      0.4394
    SETDIJ:  cpu time      0.3013: real time      0.3025
     EDDAV:  cpu time     87.4284: real time     87.8535
       DOS:  cpu time      0.4136: real time      0.4154
    --------------------------------------------
      LOOP:  cpu time     88.5724: real time     89.0109

 eigenvalue-minimisations  : 19624
 total energy-change (2. order) : 0.3943039E+04  (-0.1632980E+05)
 number of electron     419.0000000 magnetization 
 augmentation part      419.0000000 magnetization 

 Free energy of the ion-electron system (eV)
  ---------------------------------------------------
  alpha Z        PSCENC =      3502.12417053
  Ewald energy   TEWEN  =    -43777.46000829
  -Hartree energ DENC   =     -8284.32991253
  -exchange      EXHF   =         0.00000000
  -V(xc)+E(xc)   XCENC  =      1698.98616910
  PAW double counting   =     40724.25631555   -40110.02387799
  entropy T*S    EENTRO =        -0.00176588
  eigenvalues    EBANDS =     -1154.25159771
  atomic energy  EATOM  =     51343.73959510
  Solvation  Ediel_sol  =         0.00000000
  ---------------------------------------------------
  free energy    TOTEN  =      3943.03908790 eV

  energy without entropy =     3943.04085378  energy(sigma->0) =     3943.03997084


--------------------------------------------------------------------------------------------------------




--------------------------------------- Iteration      1(   2)  ---------------------------------------


     EDDAV:  cpu time     67.3595: real time     67.6864
       DOS:  cpu time      0.5235: real time      0.5259
    --------------------------------------------
      LOOP:  cpu time     67.8830: real time     68.2122

 eigenvalue-minimisations  : 19332
 total energy-change (2. order) :-0.3928503E+04  (-0.3814582E+04)
 number of electron     419.0000000 magnetization 
 augmentation part      419.0000000 magnetization 

 Free energy of the ion-electron system (eV)
  ---------------------------------------------------
  alpha Z        PSCENC =      3502.12417053
  Ewald energy   TEWEN  =    -43777.46000829
  -Hartree energ DENC   =     -8284.32991253
  -exchange      EXHF   =         0.00000000
  -V(xc)+E(xc)   XCENC  =      1698.98616910
  PAW double counting   =     40724.25631555   -40110.02387799
  entropy T*S    EENTRO =        -0.00292758
  eigenvalues    EBANDS =     -5082.75350065
  atomic energy  EATOM  =     51343.73959510
  Solvation  Ediel_sol  =         0.00000000
  ---------------------------------------------------
  free energy    TOTEN  =        14.53602325 eV

  energy without entropy =       14.53895083  energy(sigma->0) =       14.53748704


--------------------------------------------------------------------------------------------------------




--------------------------------------- Iteration      1(   3)  ---------------------------------------


     EDDAV:  cpu time    122.2784: real time    122.8598
       DOS:  cpu time      0.7161: real time      0.7195
    --------------------------------------------
      LOOP:  cpu time    122.9945: real time    123.5792

 eigenvalue-minimisations  : 29720
 total energy-change (2. order) :-0.3663651E+03  (-0.3448558E+03)
 number of electron     419.0000000 magnetization 
 augmentation part      419.0000000 magnetization 

 Free energy of the ion-electron system (eV)
  ---------------------------------------------------
  alpha Z        PSCENC =      3502.12417053
  Ewald energy   TEWEN  =    -43777.46000829
  -Hartree energ DENC   =     -8284.32991253
  -exchange      EXHF   =         0.00000000
  -V(xc)+E(xc)   XCENC  =      1698.98616910
  PAW double counting   =     40724.25631555   -40110.02387799
  entropy T*S    EENTRO =        -0.00454623
  eigenvalues    EBANDS =     -5449.11701937
  atomic energy  EATOM  =     51343.73959510
  Solvation  Ediel_sol  =         0.00000000
  ---------------------------------------------------
  free energy    TOTEN  =      -351.82911412 eV

  energy without entropy =     -351.82456789  energy(sigma->0) =     -351.82684101


--------------------------------------------------------------------------------------------------------




--------------------------------------- Iteration      1(   4)  ---------------------------------------


     EDDAV:  cpu time     53.0786: real time     53.3386
       DOS:  cpu time      0.0153: real time      0.0155
    --------------------------------------------
      LOOP:  cpu time     53.0939: real time     53.3541

 eigenvalue-minimisations  : 30112
 total energy-change (2. order) :-0.2813087E+02  (-0.2721474E+02)
 number of electron     419.0000000 magnetization 
 augmentation part      419.0000000 magnetization 

 Free energy of the ion-electron system (eV)
  ---------------------------------------------------
  alpha Z        PSCENC =      3502.12417053
  Ewald energy   TEWEN  =    -43777.46000829
  -Hartree energ DENC   =     -8284.32991253
  -exchange      EXHF   =         0.00000000
  -V(xc)+E(xc)   XCENC  =      1698.98616910
  PAW double counting   =     40724.25631555   -40110.02387799
  entropy T*S    EENTRO =        -0.00751307
  eigenvalues    EBANDS =     -5477.24492667
  atomic energy  EATOM  =     51343.73959510
  Solvation  Ediel_sol  =         0.00000000
  ---------------------------------------------------
  free energy    TOTEN  =      -379.95998826 eV

  energy without entropy =     -379.95247519  energy(sigma->0) =     -379.95623172


--------------------------------------------------------------------------------------------------------




--------------------------------------- Iteration      1(   5)  ---------------------------------------


     EDDAV:  cpu time     62.0130: real time     62.3151
       DOS:  cpu time      0.4928: real time      0.4950
    CHARGE:  cpu time      0.7828: real time      0.7866
    MIXING:  cpu time      0.1649: real time      0.1658
    --------------------------------------------
      LOOP:  cpu time     63.4535: real time     63.7624

 eigenvalue-minimisations  : 30112
 total energy-change (2. order) :-0.1663184E+01  (-0.1647260E+01)
 number of electron     418.9999733 magnetization 
 augmentation part       79.4154983 magnetization 

 Broyden mixing:
  rms(total) = 0.71772E+01    rms(broyden)= 0.71755E+01
  rms(prec ) = 0.73919E+01
  weight for this iteration     100.00

 Free energy of the ion-electron system (eV)
  ---------------------------------------------------
  alpha Z        PSCENC =      3502.12417053
  Ewald energy   TEWEN  =    -43777.46000829
  -Hartree energ DENC   =     -8284.32991253
  -exchange      EXHF   =         0.00000000
  -V(xc)+E(xc)   XCENC  =      1698.98616910
  PAW double counting   =     40724.25631555   -40110.02387799
  entropy T*S    EENTRO =        -0.00740581
  eigenvalues    EBANDS =     -5478.90821806
  atomic energy  EATOM  =     51343.73959510
  Solvation  Ediel_sol  =         0.00000000
  ---------------------------------------------------
  free energy    TOTEN  =      -381.62317240 eV

  energy without entropy =     -381.61576658  energy(sigma->0) =     -381.61946949


--------------------------------------------------------------------------------------------------------




--------------------------------------- Iteration      1(   6)  ---------------------------------------


    POTLOK:  cpu time      0.3504: real time      0.3525
    SETDIJ:  cpu time      0.1757: real time      0.1765
     EDDAV:  cpu time     35.1618: real time     35.3276
       DOS:  cpu time      0.3894: real time      0.3911
    CHARGE:  cpu time      0.3530: real time      0.3543
    MIXING:  cpu time      0.0205: real time      0.0206
    --------------------------------------------
      LOOP:  cpu time     36.4507: real time     36.6226

 eigenvalue-minimisations  : 23352
 total energy-change (2. order) : 0.1377616E+02  (-0.4476545E+01)
 number of electron     418.9999719 magnetization 
 augmentation part       82.8506222 magnetization 

 Broyden mixing:
  rms(total) = 0.26528E+01    rms(broyden)= 0.26522E+01
  rms(prec ) = 0.32519E+01
  weight for this iteration     100.00

 eigenvalues of (default mixing * dielectric matrix)
  average eigenvalue GAMMA=   1.4019
  1.4019

 Free energy of the ion-electron system (eV)
  ---------------------------------------------------
  alpha Z        PSCENC =      3502.12417053
  Ewald energy   TEWEN  =    -43777.46000829
  -Hartree energ DENC   =     -7832.86716035
  -exchange      EXHF   =         0.00000000
  -V(xc)+E(xc)   XCENC  =      1676.58376642
  PAW double counting   =     47619.15954852   -47055.52798429
  entropy T*S    EENTRO =        -0.00483266
  eigenvalues    EBANDS =     -5843.59410419
  atomic energy  EATOM  =     51343.73959510
  Solvation  Ediel_sol  =         0.00000000
  ---------------------------------------------------
  free energy    TOTEN  =      -367.84700922 eV

  energy without entropy =     -367.84217656  energy(sigma->0) =     -367.84459289


--------------------------------------------------------------------------------------------------------




--------------------------------------- Iteration      1(   7)  ---------------------------------------


    POTLOK:  cpu time      0.1492: real time      0.1504
    SETDIJ:  cpu time      0.0035: real time      0.0035
     EDDAV:  cpu time     40.7571: real time     40.9494
       DOS:  cpu time      0.4492: real time      0.4512
    CHARGE:  cpu time      0.5975: real time      0.6002
    MIXING:  cpu time      0.2287: real time      0.2298
    --------------------------------------------
      LOOP:  cpu time     42.1852: real time     42.3846

 eigenvalue-minimisations  : 27512
 total energy-change (2. order) :-0.1533536E+02  (-0.6431477E+01)
 number of electron     418.9999725 magnetization 
 augmentation part       82.3912887 magnetization 

 Broyden mixing:
  rms(total) = 0.22322E+01    rms(broyden)= 0.22301E+01
  rms(prec ) = 0.61709E+01
  weight for this iteration     100.00

 eigenvalues of (default mixing * dielectric matrix)
  average eigenvalue GAMMA=   0.9978
  1.5558  0.4399

 Free energy of the ion-electron system (eV)
  ---------------------------------------------------
  alpha Z        PSCENC =      3502.12417053
  Ewald energy   TEWEN  =    -43777.46000829
  -Hartree energ DENC   =     -7718.53083615
  -exchange      EXHF   =         0.00000000
  -V(xc)+E(xc)   XCENC  =      1669.43532543
  PAW double counting   =     51623.69662482   -51073.70825210
  entropy T*S    EENTRO =        -0.00913482
  eigenvalues    EBANDS =     -5952.46985353
  atomic energy  EATOM  =     51343.73959510
  Solvation  Ediel_sol  =         0.00000000
  ---------------------------------------------------
  free energy    TOTEN  =      -383.18236900 eV

  energy without entropy =     -383.17323418  energy(sigma->0) =     -383.17780159


--------------------------------------------------------------------------------------------------------




--------------------------------------- Iteration      1(   8)  ---------------------------------------


    POTLOK:  cpu time      0.0148: real time      0.0154
    SETDIJ:  cpu time      0.0024: real time      0.0024
     EDDAV:  cpu time     18.3420: real time     18.4229
       DOS:  cpu time      0.4412: real time      0.4432
    CHARGE:  cpu time      0.3942: real time      0.3958
    MIXING:  cpu time      0.2339: real time      0.2351
    --------------------------------------------
      LOOP:  cpu time     19.4286: real time     19.5148

 eigenvalue-minimisations  : 27728
 total energy-change (2. order) : 0.2035879E+02  (-0.4044082E+01)
 number of electron     418.9999723 magnetization 
 augmentation part       83.1920387 magnetization 

 Broyden mixing:
  rms(total) = 0.80114E+00    rms(broyden)= 0.79761E+00
  rms(prec ) = 0.12051E+01
  weight for this iteration     100.00

 eigenvalues of (default mixing * dielectric matrix)
  average eigenvalue GAMMA=   0.8873
  1.6510  0.7197  0.2912

 Free energy of the ion-electron system (eV)
  ---------------------------------------------------
  alpha Z        PSCENC =      3502.12417053
  Ewald energy   TEWEN  =    -43777.46000829
  -Hartree energ DENC   =     -7642.21346897
  -exchange      EXHF   =         0.00000000
  -V(xc)+E(xc)   XCENC  =      1666.21881809
  PAW double counting   =     53013.90479244   -52472.12983070
  entropy T*S    EENTRO =        -0.00340144
  eigenvalues    EBANDS =     -5997.00424415
  atomic energy  EATOM  =     51343.73959510
  Solvation  Ediel_sol  =         0.00000000
  ---------------------------------------------------
  free energy    TOTEN  =      -362.82357739 eV

  energy without entropy =     -362.82017595  energy(sigma->0) =     -362.82187667


--------------------------------------------------------------------------------------------------------




--------------------------------------- Iteration      1(   9)  ---------------------------------------


    POTLOK:  cpu time      0.3907: real time      0.3930
    SETDIJ:  cpu time      0.2109: real time      0.2119
     EDDAV:  cpu time     15.6762: real time     15.7450
       DOS:  cpu time      0.2613: real time      0.2624
    CHARGE:  cpu time      0.1733: real time      0.1741
    MIXING:  cpu time      0.0004: real time      0.0004
    --------------------------------------------
      LOOP:  cpu time     16.7127: real time     16.7869

 eigenvalue-minimisations  : 25760
 total energy-change (2. order) :-0.3334618E-01  (-0.1504453E+01)
 number of electron     418.9999722 magnetization 
 augmentation part       83.4855335 magnetization 

 Broyden mixing:
  rms(total) = 0.61721E+00    rms(broyden)= 0.61623E+00
  rms(prec ) = 0.76857E+00
  weight for this iteration     100.00

 eigenvalues of (default mixing * dielectric matrix)
  average eigenvalue GAMMA=   0.8591
  1.6720  1.1209  0.2516  0.3921

 Free energy of the ion-electron system (eV)
  ---------------------------------------------------
  alpha Z        PSCENC =      3502.12417053
  Ewald energy   TEWEN  =    -43777.46000829
  -Hartree energ DENC   =     -7607.22722710
  -exchange      EXHF   =         0.00000000
  -V(xc)+E(xc)   XCENC  =      1664.69496415
  PAW double counting   =     53694.46230188   -53156.16564171
  entropy T*S    EENTRO =        -0.00505547
  eigenvalues    EBANDS =     -6027.02002265
  atomic energy  EATOM  =     51343.73959510
  Solvation  Ediel_sol  =         0.00000000
  ---------------------------------------------------
  free energy    TOTEN  =      -362.85692357 eV

  energy without entropy =     -362.85186810  energy(sigma->0) =     -362.85439583


--------------------------------------------------------------------------------------------------------




--------------------------------------- Iteration      1(  10)  ---------------------------------------


    POTLOK:  cpu time      0.0073: real time      0.0075
    SETDIJ:  cpu time      0.0022: real time      0.0022
     EDDAV:  cpu time     11.7432: real time     11.7938
       DOS:  cpu time      0.5375: real time      0.5400
    CHARGE:  cpu time      0.4400: real time      0.4417
    MIXING:  cpu time      0.3413: real time      0.3430
    --------------------------------------------
      LOOP:  cpu time     13.0714: real time     13.1281

 eigenvalue-minimisations  : 25688
 total energy-change (2. order) : 0.1481290E+00  (-0.2466980E+00)
 number of electron     418.9999724 magnetization 
 augmentation part       83.3824108 magnetization 

 Broyden mixing:
  rms(total) = 0.40045E+00    rms(broyden)= 0.40018E+00
  rms(prec ) = 0.46019E+00
  weight for this iteration     100.00

 eigenvalues of (default mixing * dielectric matrix)
  average eigenvalue GAMMA=   1.0298
  2.1424  1.7531  0.6015  0.2719  0.3803

 Free energy of the ion-electron system (eV)
  ---------------------------------------------------
  alpha Z        PSCENC =      3502.12417053
  Ewald energy   TEWEN  =    -43777.46000829
  -Hartree energ DENC   =     -7609.97963678
  -exchange      EXHF   =         0.00000000
  -V(xc)+E(xc)   XCENC  =      1664.81146481
  PAW double counting   =     53974.92537002   -53434.14926676
  entropy T*S    EENTRO =        -0.00517082
  eigenvalues    EBANDS =     -6026.71531238
  atomic energy  EATOM  =     51343.73959510
  Solvation  Ediel_sol  =         0.00000000
  ---------------------------------------------------
  free energy    TOTEN  =      -362.70879455 eV

  energy without entropy =     -362.70362373  energy(sigma->0) =     -362.70620914


--------------------------------------------------------------------------------------------------------




--------------------------------------- Iteration      1(  11)  ---------------------------------------


    POTLOK:  cpu time      0.3194: real time      0.3215
    SETDIJ:  cpu time      0.0064: real time      0.0064
     EDDAV:  cpu time     20.4379: real time     20.5321
       DOS:  cpu time      0.2601: real time      0.2613
    CHARGE:  cpu time      0.1849: real time      0.1857
    MIXING:  cpu time      0.4080: real time      0.4100
    --------------------------------------------
      LOOP:  cpu time     21.6167: real time     21.7170

 eigenvalue-minimisations  : 24928
 total energy-change (2. order) : 0.5786441E-02  (-0.7592559E-01)
 number of electron     418.9999725 magnetization 
 augmentation part       83.1861182 magnetization 

 Broyden mixing:
  rms(total) = 0.15394E+00    rms(broyden)= 0.15374E+00
  rms(prec ) = 0.32591E+00
  weight for this iteration     100.00

 eigenvalues of (default mixing * dielectric matrix)
  average eigenvalue GAMMA=   1.0292
  2.5057  1.7252  0.8336  0.4737  0.2713  0.3659

 Free energy of the ion-electron system (eV)
  ---------------------------------------------------
  alpha Z        PSCENC =      3502.12417053
  Ewald energy   TEWEN  =    -43777.46000829
  -Hartree energ DENC   =     -7620.95864710
  -exchange      EXHF   =         0.00000000
  -V(xc)+E(xc)   XCENC  =      1665.27411362
  PAW double counting   =     54267.66047682   -53721.02749505
  entropy T*S    EENTRO =        -0.00495187
  eigenvalues    EBANDS =     -6022.05026188
  atomic energy  EATOM  =     51343.73959510
  Solvation  Ediel_sol  =         0.00000000
  ---------------------------------------------------
  free energy    TOTEN  =      -362.70300811 eV

  energy without entropy =     -362.69805624  energy(sigma->0) =     -362.70053218


--------------------------------------------------------------------------------------------------------




--------------------------------------- Iteration      1(  12)  ---------------------------------------


    POTLOK:  cpu time      0.1006: real time      0.1015
    SETDIJ:  cpu time      0.0024: real time      0.0024
     EDDAV:  cpu time     13.5457: real time     13.6052
       DOS:  cpu time      0.2596: real time      0.2608
    CHARGE:  cpu time      0.1770: real time      0.1778
    MIXING:  cpu time      0.1557: real time      0.1564
    --------------------------------------------
      LOOP:  cpu time     14.2409: real time     14.3041

 eigenvalue-minimisations  : 26416
 total energy-change (2. order) :-0.5876059E-02  (-0.3454431E-01)
 number of electron     418.9999725 magnetization 
 augmentation part       83.1686381 magnetization 

 Broyden mixing:
  rms(total) = 0.10808E+00    rms(broyden)= 0.10780E+00
  rms(prec ) = 0.31296E+00
  weight for this iteration     100.00

 eigenvalues of (default mixing * dielectric matrix)
  average eigenvalue GAMMA=   0.9400
  2.5026  1.7236  0.8726  0.5155  0.3923  0.2777  0.2954

 Free energy of the ion-electron system (eV)
  ---------------------------------------------------
  alpha Z        PSCENC =      3502.12417053
[...]
    127       4.8835      2.00000
    128       4.9980      2.00000
    129       5.3061      2.00000
    130       5.4579      2.00000
    131       5.6685      2.00000
    132       5.9416      2.00000
    133       6.0307      2.00000
    134       6.1305      2.00000
    135       6.2312      2.00000
    136       6.2742      2.00000
    137       6.3859      2.00000
    138       6.4398      2.00000
    139       6.4836      2.00000
    140       6.5396      2.00000
    141       6.6082      2.00000
    142       6.6456      2.00000
    143       6.7051      2.00000
    144       6.7351      2.00000
    145       6.7607      2.00000
    146       6.7916      2.00000
    147       6.8086      2.00000
    148       6.8389      2.00000
    149       6.8671      2.00000
    150       6.8910      2.00000
    151       6.9187      2.00000
    152       6.9396      2.00000
    153       7.0379      2.00000
    154       7.0459      2.00000
    155       7.0688      2.00000
    156       7.2386      2.00000
    157       7.2497      2.00000
    158       7.2939      2.00000
    159       7.3180      2.00000
    160       7.3626      2.00000
    161       7.3949      2.00000
    162       7.5459      2.00000
    163       7.6111      2.00000
    164       7.6563      2.00000
    165       7.6809      2.00000
    166       7.7089      2.00000
    167       7.7179      2.00000
    168       7.7314      2.00000
    169       7.7505      2.00000
    170       7.7881      2.00000
    171       7.8142      2.00000
    172       7.8331      2.00000
    173       7.8536      2.00000
    174       7.8910      2.00000
    175       7.9287      2.00000
    176       7.9707      2.00000
    177       8.0011      2.00000
    178       8.0323      2.00000
    179       8.0746      2.00000
    180       8.0960      2.00000
    181       8.1116      2.00000
    182       8.1519      2.00000
    183       8.1596      2.00000
    184       8.1973      2.00000
    185       8.2139      2.00000
    186       8.2348      2.00000
    187       8.2363      2.00000
    188       8.2515      2.00000
    189       8.2808      2.00000
    190       8.2924      2.00000
    191       8.3310      2.00000
    192       8.3541      2.00000
    193       8.3788      2.00000
    194       8.4018      2.00000
    195       8.4285      2.00000
    196       8.5000      2.00000
    197       8.5109      2.00000
    198       8.5258      2.00000
    199       8.5458      2.00000
    200       8.5681      2.00000
    201       8.6217      2.00000
    202       8.6464      2.00000
    203       8.6609      2.00000
    204       8.6997      2.00000
    205       8.7283      2.00000
    206       8.7781      2.00000
    207       8.8040      2.00000
    208       8.8275      2.00000
    209       8.8506      2.00000
    210       8.8791      2.00000
    211       8.9056      2.00000
    212       8.9312      2.00000
    213       9.0043      2.00000
    214       9.0093      2.00000
    215       9.2905      2.00000
    216       9.4416      2.00000
    217       9.4589      1.99995
    218      10.1548      0.00000
    219      11.0593      0.00000
    220      11.1626      0.00000
    221      11.2520      0.00000
    222      11.2824      0.00000
    223      11.3290      0.00000
    224      11.3449      0.00000
    225      11.4069      0.00000
    226      11.4812      0.00000
    227      11.5571      0.00000
    228      11.5740      0.00000
    229      11.6639      0.00000
    230      11.7165      0.00000
    231      11.7508      0.00000
    232      11.7639      0.00000
    233      11.8184      0.00000
    234      11.8321      0.00000
    235      11.8830      0.00000
    236      11.9116      0.00000
    237      11.9445      0.00000
    238      12.0089      0.00000
    239      12.0533      0.00000
    240      12.0707      0.00000
    241      12.1154      0.00000
    242      12.1358      0.00000
    243      12.1925      0.00000
    244      12.2246      0.00000
    245      12.2425      0.00000
    246      12.2633      0.00000
    247      12.2916      0.00000
    248      12.3522      0.00000
    249      12.3800      0.00000
    250      12.4120      0.00000
    251      12.4809      0.00000
    252      12.5605      0.00000


--------------------------------------------------------------------------------------------------------


 soft charge-density along one line, spin component           1
         0         1         2         3         4         5         6         7         8         9
 total charge-density along one line
 
 pseudopotential strength for first ion, spin component:           1
  5.756 -20.275  -0.000   0.002   0.000   0.000  -0.004   0.000
-20.275   9.193  -0.000   0.002  -0.000   0.000  -0.000   0.000
 -0.000  -0.000  -9.757   0.001  -0.001   5.992  -0.001   0.001
  0.002   0.002   0.001  -9.752  -0.003  -0.001   5.987   0.004
  0.000  -0.000  -0.001  -0.003  -9.756   0.001   0.004   5.991
  0.000   0.000   5.992  -0.001   0.001   7.949   0.001  -0.001
 -0.004  -0.000  -0.001   5.987   0.004   0.001   7.951  -0.002
  0.000   0.000   0.001   0.004   5.991  -0.001  -0.002   7.949
 -0.001  -0.000   0.000   0.000  -0.000   0.000  -0.001   0.000
  0.000   0.000   0.002  -0.000   0.000  -0.002   0.000  -0.001
  0.002   0.001   0.000   0.001   0.000  -0.000  -0.002  -0.000
 -0.002  -0.001   0.000   0.000   0.002  -0.001   0.000  -0.002
  0.000   0.000   0.000  -0.000   0.000  -0.000  -0.000   0.000
 -0.001  -0.000   0.000   0.000  -0.000   0.000  -0.001   0.000
  0.001   0.000   0.002  -0.000   0.000  -0.003   0.000  -0.001
  0.002   0.001   0.000   0.002   0.000  -0.000  -0.002  -0.000
 -0.003  -0.001   0.000   0.000   0.002  -0.001   0.000  -0.003
  0.000   0.000   0.000  -0.000   0.000  -0.000  -0.000   0.000
 total augmentation occupancy for first ion, spin component:           1
  1.995  -0.047  -0.000  -0.000   0.000  -0.000  -0.000   0.000  -0.001   0.006   0.002  -0.009   0.001   0.001  -0.005  -0.002
 -0.047   1.329  -0.000  -0.001   0.004   0.000  -0.003  -0.008  -0.014   0.004   0.039  -0.022   0.013   0.010   0.006  -0.015
 -0.000  -0.000   1.996  -0.000  -0.000  -0.031   0.001   0.000   0.005  -0.006   0.000  -0.009   0.001  -0.003   0.004  -0.000
 -0.000  -0.001  -0.000   1.996   0.000   0.001  -0.031  -0.001  -0.009  -0.002   0.003   0.005  -0.001   0.005   0.001  -0.002
  0.000   0.004  -0.000   0.000   1.996   0.000  -0.001  -0.030  -0.001  -0.008  -0.003  -0.008   0.005   0.001   0.005   0.001
 -0.000   0.000  -0.031   0.001   0.000   0.067  -0.002  -0.000  -0.012   0.005  -0.000   0.013  -0.000   0.007  -0.005   0.000
 -0.000  -0.003   0.001  -0.031  -0.001  -0.002   0.069   0.002   0.013   0.005  -0.010  -0.012   0.001  -0.007  -0.003   0.004
  0.000  -0.008   0.000  -0.001  -0.030  -0.000   0.002   0.067   0.003   0.010   0.004   0.007  -0.007  -0.002  -0.006  -0.002
 -0.001  -0.014   0.005  -0.009  -0.001  -0.012   0.013   0.003   3.265  -0.035   0.003  -0.035  -0.002  -1.359   0.005  -0.002
  0.006   0.004  -0.006  -0.002  -0.008   0.005   0.005   0.010  -0.035   3.272   0.024  -0.045  -0.040   0.005  -1.364  -0.010
  0.002   0.039   0.000   0.003  -0.003  -0.000  -0.010   0.004   0.003   0.024   2.698  -0.033  -0.018  -0.002  -0.010  -1.216
 -0.009  -0.022  -0.009   0.005  -0.008   0.013  -0.012   0.007  -0.035  -0.045  -0.033   3.238  -0.049   0.028   0.024   0.015
  0.001   0.013   0.001  -0.001   0.005  -0.000   0.001  -0.007  -0.002  -0.040  -0.018  -0.049   2.601   0.001   0.016   0.005
  0.001   0.010  -0.003   0.005   0.001   0.007  -0.007  -0.002  -1.359   0.005  -0.002   0.028   0.001   0.578   0.001   0.001
 -0.005   0.006   0.004   0.001   0.005  -0.005  -0.003  -0.006   0.005  -1.364  -0.010   0.024   0.016   0.001   0.580   0.004
 -0.002  -0.015  -0.000  -0.002   0.001   0.000   0.004  -0.002  -0.002  -0.010  -1.216   0.015   0.005   0.001   0.004   0.556
  0.008   0.006   0.005  -0.003   0.005  -0.007   0.007  -0.006   0.028   0.024   0.014  -1.353   0.022  -0.018  -0.013  -0.006
 -0.001  -0.005  -0.001   0.000  -0.003   0.000  -0.000   0.003   0.001   0.017   0.005   0.023  -1.178  -0.000  -0.007  -0.000


------------------------ aborting loop because EDIFF is reached ----------------------------------------


    CHARGE:  cpu time      0.4835: real time      0.4854
    FORLOC:  cpu time      0.0142: real time      0.0142
    FORNL :  cpu time      5.5201: real time      5.5516
    STRESS:  cpu time      3.3373: real time      3.3497
    FORCOR:  cpu time      0.0459: real time      0.0460
    FORHAR:  cpu time      0.1573: real time      0.1580
    MIXING:  cpu time      0.5902: real time      0.5930
    OFIELD:  cpu time      0.0001: real time      0.0001

  FORCE on cell =-STRESS in cart. coord.  units (eV):
  Direction    XX          YY          ZZ          XY          YZ          ZX
  --------------------------------------------------------------------------------------
  Alpha Z  3502.12417  3502.12417  3502.12417
  Ewald  -14631.21634-14536.51422-14609.95915    13.96719     3.84563    -7.98702
  Hartree  2500.07645  2597.18223  2525.72071    14.10020     3.13428    -7.53978
  E(xc)   -1928.28019 -1928.26864 -1928.21009    -0.03113     0.01247     0.00463
  Local    3315.75677  3119.90073  3263.03698   -27.72818    -7.12898    14.29030
  n-local  -640.71402  -642.61028  -640.03665     0.11115    -0.85426     2.32374
  augment  1068.57975  1069.28527  1068.93592    -0.01593    -0.00311     0.21193
  Kinetic  6763.12390  6769.19606  6768.08470    -0.10460     1.11441    -1.79237
  Fock        0.00000     0.00000     0.00000     0.00000     0.00000     0.00000
  -------------------------------------------------------------------------------------
  Total     -50.54951   -49.70467   -50.30340     0.29868     0.12044    -0.48856
  in kB    -142.14117  -139.76555  -141.44912     0.83988     0.33868    -1.37380
  external pressure =     -141.12 kB  Pullay stress =        0.00 kB


 VOLUME and BASIS-vectors are now :
 -----------------------------------------------------------------------------
  energy-cutoff  :      250.00
  volume of cell :      569.78
      direct lattice vectors                 reciprocal lattice vectors
    13.160000000  0.000000000  0.000000000     0.075987842  0.000000000  0.000000000
     0.000000000  6.580000000  0.000000000     0.000000000  0.151975684  0.000000000
     0.000000000  0.000000000  6.580000000     0.000000000  0.000000000  0.151975684

  length of vectors
    13.160000000  6.580000000  6.580000000     0.075987842  0.151975684  0.151975684


 FORCES acting on ions
    electron-ion (+dipol)            ewald-force                    non-local-force                 convergence-correction
 -----------------------------------------------------------------------------------------------
   0.937E+02 -.179E+02 -.110E+01   -.941E+02 0.179E+02 0.152E+01   0.528E+00 -.423E-01 -.793E-01   -.508E-04 0.584E-04 -.367E-04
   -.112E+03 0.838E+01 -.650E+02   0.111E+03 -.817E+01 0.643E+02   -.262E-01 0.117E-01 0.477E-01   -.163E-04 0.636E-04 0.379E-04
   -.634E+02 0.283E+02 -.293E+02   0.635E+02 -.281E+02 0.291E+02   -.376E+00 -.124E-01 0.353E-01   -.970E-05 0.348E-04 0.140E-03
   -.745E+02 -.179E+02 0.199E+02   0.745E+02 0.179E+02 -.199E+02   -.318E+00 -.395E-01 0.482E-01   0.180E-04 0.177E-04 -.334E-04
   0.639E+02 0.283E+02 0.650E+02   -.639E+02 -.286E+02 -.643E+02   0.255E+00 0.161E+00 -.753E-01   -.185E-04 0.131E-04 0.147E-04
   0.708E+02 -.283E+02 0.650E+02   -.704E+02 0.286E+02 -.643E+02   0.421E-01 -.192E+00 -.335E-01   -.512E-05 -.173E-04 0.147E-04
   0.577E+02 -.178E+02 0.112E+01   -.578E+02 0.179E+02 -.152E+01   0.121E+00 -.625E-01 0.968E-01   -.236E-04 0.581E-04 0.394E-04
   0.132E+02 0.578E+00 -.184E+02   -.129E+02 -.102E+01 0.184E+02   -.311E+00 0.164E+00 -.828E-01   0.195E-04 -.315E-04 0.222E-04
   -.825E+02 -.837E+01 0.650E+02   0.818E+02 0.817E+01 -.643E+02   0.256E+00 -.111E-01 -.797E-01   -.721E-04 -.665E-04 -.451E-04
   -.564E+02 -.283E+02 -.293E+02   0.565E+02 0.281E+02 0.291E+02   -.318E+00 0.299E-01 0.411E-01   -.882E-05 -.331E-04 0.142E-03
   0.441E+02 0.283E+02 0.105E+02   -.439E+02 -.281E+02 -.107E+02   0.158E+00 -.315E-01 0.552E-01   0.450E-04 0.671E-04 -.605E-04
   0.297E+02 0.209E+02 0.196E+02   -.300E+02 -.209E+02 -.198E+02   0.349E+00 -.275E-01 0.124E+00   0.260E-05 -.249E-04 0.380E-04
   0.446E+02 0.305E+02 -.696E+02   -.442E+02 -.308E+02 0.692E+02   -.188E+00 0.105E+00 -.110E+00   0.604E-04 0.180E-04 -.337E-04
   -.935E+02 0.192E+02 0.214E+02   0.938E+02 -.192E+02 -.214E+02   -.339E+00 0.307E-01 0.203E-01   -.224E-04 -.179E-04 -.376E-04
   -.550E+01 -.304E+02 0.315E+02   0.514E+01 0.302E+02 -.313E+02   0.187E+00 0.149E-01 0.110E-01   -.868E-06 -.353E-04 -.153E-03
   0.267E+02 -.304E+02 -.114E+02   -.262E+02 0.302E+02 0.115E+02   -.430E+00 0.309E-01 0.465E-01   0.916E-04 -.761E-04 0.743E-04
   0.295E+02 0.304E+02 -.115E+02   -.293E+02 -.302E+02 0.115E+02   -.131E+00 -.402E-01 0.815E-01   0.677E-04 0.761E-04 0.757E-04
   0.194E+02 -.209E+02 -.197E+02   -.195E+02 0.209E+02 0.198E+02   -.342E-01 0.203E-01 -.137E+00   0.246E-04 0.221E-04 -.447E-04
   0.896E+02 -.305E+02 -.696E+02   -.899E+02 0.308E+02 0.692E+02   0.338E+00 -.713E-01 -.102E+00   0.585E-04 -.220E-04 -.351E-04
   0.302E+02 0.151E+02 0.855E+00   -.299E+02 -.151E+02 -.129E+01   -.364E-01 -.314E-02 0.474E-02   -.362E-04 -.413E-04 0.421E-04
   -.468E+02 0.151E+02 -.168E+02   0.465E+02 -.151E+02 0.168E+02   0.313E+00 0.291E-01 -.301E-01   -.311E-04 -.919E-05 0.305E-04
   -.489E+02 -.151E+02 -.168E+02   0.489E+02 0.151E+02 0.168E+02   0.248E-01 -.450E-01 -.131E-01   -.104E-04 0.915E-05 0.278E-04
   0.478E+02 -.240E+02 0.886E+01   -.478E+02 0.237E+02 -.906E+01   0.150E+00 0.463E-01 -.531E-01   0.576E-04 -.541E-04 -.516E-04
   0.193E+02 -.408E+00 0.156E+02   -.192E+02 0.859E+00 -.155E+02   -.135E-01 -.447E-01 0.383E-01   -.469E-05 0.199E-04 -.115E-04
   0.112E+02 0.164E+02 -.156E+02   -.109E+02 -.164E+02 0.155E+02   -.304E+00 -.265E-01 -.270E-01   0.568E-04 -.121E-04 -.331E-04
   0.934E+02 0.192E+02 -.137E+01   -.938E+02 -.192E+02 0.164E+01   0.300E+00 -.115E-01 0.122E+00   -.536E-04 -.575E-04 -.453E-04
   -.134E+03 0.888E+01 0.696E+02   0.134E+03 -.879E+01 -.692E+02   -.217E+00 0.115E+00 0.255E+00   -.892E-04 0.724E-04 -.407E-04
   0.195E+02 -.862E+00 -.197E+02   -.195E+02 0.109E+01 0.198E+02   -.163E-01 0.180E+00 -.539E-01   0.345E-04 0.357E-04 0.158E-04
   0.245E+02 -.209E+02 0.198E+02   -.245E+02 0.209E+02 -.198E+02   0.261E-01 0.299E-01 -.278E-01   -.123E-04 0.214E-04 0.426E-04
   -.293E+02 0.304E+02 0.315E+02   0.293E+02 -.302E+02 -.313E+02   -.937E-01 0.159E-01 0.398E-01   -.286E-04 0.355E-04 -.147E-03
   0.297E+02 0.825E+00 0.197E+02   -.300E+02 -.109E+01 -.198E+02   0.347E+00 -.151E+00 0.494E-01   -.493E-04 -.323E-04 -.181E-04
   -.113E+03 -.887E+01 -.696E+02   0.113E+03 0.879E+01 0.692E+02   -.288E+00 -.129E+00 -.235E+00   -.411E-05 -.696E-04 0.396E-04
 -----------------------------------------------------------------------------------------------
   0.439E-01 -.435E-01 0.215E-01   -.284E-12 0.162E-12 -.327E-12   -.437E-01 0.434E-01 -.215E-01   -.109E-04 0.223E-04 -.302E-04
 
 
 POSITION                                       TOTAL-FORCE (eV/Angst)
 -----------------------------------------------------------------------------------
      1.64500      4.93500      1.64500         0.180195     -0.045153      0.340297
      9.87000      0.00000      0.00000        -0.498334      0.228303     -0.664518
      8.22500      4.93500      1.64500        -0.292593      0.248475     -0.217978
     11.51500      4.93500      4.93500        -0.299316     -0.068024      0.066684
      3.29000      3.29000      0.00000         0.179495     -0.079242      0.679735
      3.29000      0.00000      0.00000         0.473659      0.042191      0.714641
      1.64500      4.93500      4.93500         0.048084     -0.032938     -0.305544
      0.00000      3.29000      0.00000        -0.041758     -0.274531     -0.102930
      9.87000      3.29000      3.29000        -0.404282     -0.218116      0.602072
      8.22500      1.64500      1.64500        -0.175803     -0.253713     -0.229971
      4.93500      4.93500      4.93500         0.383594      0.218003     -0.158618
      6.58000      3.29000      0.00000         0.059280      0.015232     -0.005662
      3.29000      3.29000      3.29000         0.299183     -0.170477     -0.502775
     11.51500      1.64500      4.93500         0.039392      0.016007      0.015429
      8.22500      1.64500      4.93500        -0.179896     -0.169655      0.198902
      4.93500      1.64500      1.64500         0.033043     -0.179670      0.135217
      4.93500      4.93500      1.64500         0.089174      0.178265      0.151150
      6.58000      0.00000      3.29000        -0.061946     -0.015360     -0.021354
      3.29000      0.00000      3.29000         0.029460      0.187407     -0.508139
      1.64500      1.64500      4.93500         0.192583      0.023025     -0.428932
     11.51500      1.64500      1.64500         0.039207      0.048284     -0.027931
     11.51500      4.93500      1.64500         0.025458     -0.032006     -0.016281
      4.93500      1.64500      4.93500         0.159310     -0.264677     -0.252148
      0.00000      0.00000      3.29000         0.039240      0.407111      0.052243
      6.58000      3.29000      3.29000        -0.023598     -0.002684     -0.075485
      1.64500      1.64500      1.64500        -0.093966      0.002807      0.392983
      9.87000      0.00000      3.29000        -0.044152      0.195815      0.611181
      0.00000      0.00000      0.00000        -0.017278      0.411990      0.002772
      6.58000      0.00000      0.00000         0.093417     -0.016492     -0.021917
      8.22500      4.93500      4.93500        -0.123531      0.219493      0.234562
      0.00000      3.29000      3.29000         0.012377     -0.420027     -0.022771
      9.87000      3.29000      0.00000        -0.119698     -0.199641     -0.634915
 -----------------------------------------------------------------------------------
    total drift:                                0.000136     -0.000030      0.000000


--------------------------------------------------------------------------------------------------------



  FREE ENERGIE OF THE ION-ELECTRON SYSTEM (eV)
  ---------------------------------------------------
  free  energy   TOTEN  =      -362.65445515 eV

  energy  without entropy=     -362.64950663  energy(sigma->0) =     -362.65198089
 


--------------------------------------------------------------------------------------------------------


    POTLOK:  cpu time      0.6130: real time      0.6159


--------------------------------------------------------------------------------------------------------


     LOOP+:  cpu time    826.5837: real time    830.9265
    4ORBIT:  cpu time      0.0000: real time      0.0000

 total amount of memory used by VASP MPI-rank0    61379. kBytes
=======================================================================

   base      :      30000. kBytes
   nonl-proj :       9945. kBytes
   fftplans  :        778. kBytes
   grid      :       1458. kBytes
   one-center:         46. kBytes
   wavefun   :      19152. kBytes
 
  
  
 General timing and accounting informations for this job:
 ========================================================
  
                  Total CPU time used (sec):     1070.133
                            User time (sec):     1048.143
                          System time (sec):       21.989
                         Elapsed time (sec):     1097.310
  
                   Maximum memory used (kb):      112768.
                   Average memory used (kb):          N/A
  
                          Minor page faults:         9464
                          Major page faults:            0
                 Voluntary context switches:          318
