 vasp.6.3.1 04May22 (build Jul 26 2022 04:02:40) complex                        
  
 executed on             LinuxIFC date 2023.12.01  05:00:34
 running on   48 total cores
 distrk:  each k-point on   48 cores,    1 groups
 distr:  one band on NCORE=  12 cores,    4 groups


--------------------------------------------------------------------------------------------------------


 INCAR:
   ISTART = 0
   NWRITE = 2
   PREC = Accurate
   ENCUT = 250
   GGA = PE
   NSW = 0
   ISIF = 2
   ISYM = 2
   NBLOCK = 1
   KBLOCK = 1
   IBRION = -1
   NELM = 80
   EDIFF = 1E-08
   EDIFFG = -0.01
   ALGO = Normal
   LDIAG = .TRUE.
   LREAL = .FALSE.
   ISMEAR = 0
   SIGMA = 0.02
   ICHARG = 2
   LPLANE = .TRUE.
   NPAR = 4
   LSCALU = .FALSE.
   NSIM = 4
   LWAVE = .FALSE.
   LCHARG = .FALSE.
   ICORELEVEL = 1

 POTCAR:    PAW_PBE Nb_sv 25May2007               
 POTCAR:    PAW_PBE Mo_sv 02Feb2006               
 POTCAR:    PAW_PBE Ta_pv 07Sep2000               
 POTCAR:    PAW_PBE W_sv 04Sep2015                
 POTCAR:    PAW_PBE Nb_sv 25May2007               
   SHA256 =  0e8fc07c9fcd1164cf2ade22d0399fd28f85e91cd773dfa6cf24839a48c95e24 Nb_sv/POTCAR          
   COPYR  = (c) Copyright 25May2007 Georg Kresse                                                    
   COPYR  = This file is part of the software VASP. Any use, copying, and all other rights are regul
   COPYR  = If you do not have a valid VASP license, you may not use, copy or distribute this file. 
   VRHFIN =Nb: 4p5s4d                                                                               
   LEXCH  = PE                                                                                      
   EATOM  =  1555.1913 eV,  114.3033 Ry                                                             
                                                                                                    
   TITEL  = PAW_PBE Nb_sv 25May2007                                                                 
   LULTRA =        F    use ultrasoft PP ?                                                          
   IUNSCR =        1    unscreen: 0-lin 1-nonlin 2-no                                               
   RPACOR =    1.800    partial core radius                                                         
   POMASS =   92.910; ZVAL   =   13.000    mass and valenz                                          
   RCORE  =    2.400    outmost cutoff radius                                                       
   RWIGS  =    2.400; RWIGS  =    1.270    wigner-seitz radius (au A)                               
   ENMAX  =  293.235; ENMIN  =  219.927 eV                                                          
   ICORE  =        3    local potential                                                             
   LCOR   =        T    correct aug charges                                                         
   LPAW   =        T    paw PP                                                                      
   EAUG   =  455.659                                                                                
   DEXC   =    0.000                                                                                
   RMAX   =    2.456    core radius for proj-oper                                                   
   RAUG   =    1.300    factor for augmentation sphere                                              
   RDEP   =    2.451    radius for radial grids                                                     
   RDEPT  =    1.956    core radius for aug-charge                                                  
                                                                                                    
   Atomic configuration                                                                             
   11 entries                                                                                       
     n  l   j            E        occ.                                                              
     1  0  0.50    -18805.2457   2.0000                                                             
     2  0  0.50     -2630.2869   2.0000                                                             
     2  1  1.50     -2348.4046   6.0000                                                             
     3  0  0.50      -438.8757   2.0000                                                             
     3  1  1.50      -346.7588   6.0000                                                             
     3  2  2.50      -196.2560  10.0000                                                             
     4  0  0.50       -58.3859   2.0000                                                             
     5  0  0.50        -3.9816   1.0000                                                             
     4  1  1.50       -34.5141   6.0000                                                             
     4  2  2.50        -3.0408   4.0000                                                             
     4  3  2.50        -1.3606   0.0000                                                             
   Description                                                                                      
     l       E           TYP  RCUT    TYP  RCUT                                                     
     0    -58.3859094     23  2.200                                                                 
     0     -3.9816262     23  2.200                                                                 
     1    -34.5140738     23  2.200                                                                 
     1     13.6058260     23  2.200                                                                 
     2     -3.0408010     23  2.200                                                                 
     2     -0.1283038     23  2.200                                                                 
     3     -1.3605826     23  2.400                                                                 
  local pseudopotential read in
  partial core-charges read in
  partial kinetic energy density read in
  atomic valenz-charges read in
  non local Contribution for L=           0  read in
    real space projection operators read in
  non local Contribution for L=           0  read in
    real space projection operators read in
  non local Contribution for L=           1  read in
    real space projection operators read in
  non local Contribution for L=           1  read in
    real space projection operators read in
  non local Contribution for L=           2  read in
    real space projection operators read in
  non local Contribution for L=           2  read in
    real space projection operators read in
    PAW grid and wavefunctions read in
 
   number of l-projection  operators is LMAX  =           6
   number of lm-projection operators is LMMAX =          18
 
 POTCAR:    PAW_PBE Mo_sv 02Feb2006               
   SHA256 =  2731df97e41766cc617548c5a8267718fdef1f509ac6bafa01e745abea2bdfaa Mo_sv/POTCAR          
   COPYR  = (c) Copyright 02Feb2006 Georg Kresse                                                    
   COPYR  = This file is part of the software VASP. Any use, copying, and all other rights are regul
   COPYR  = If you do not have a valid VASP license, you may not use, copy or distribute this file. 
   VRHFIN =Mo: 4p5s4d                                                                               
   LEXCH  = PE                                                                                      
   EATOM  =  1862.2866 eV,  136.8742 Ry                                                             
                                                                                                    
   TITEL  = PAW_PBE Mo_sv 02Feb2006                                                                 
   LULTRA =        F    use ultrasoft PP ?                                                          
   IUNSCR =        1    unscreen: 0-lin 1-nonlin 2-no                                               
   RPACOR =    2.200    partial core radius                                                         
   POMASS =   95.940; ZVAL   =   14.000    mass and valenz                                          
   RCORE  =    2.500    outmost cutoff radius                                                       
   RWIGS  =    2.750; RWIGS  =    1.455    wigner-seitz radius (au A)                               
   ENMAX  =  242.676; ENMIN  =  182.007 eV                                                          
   ICORE  =        3    local potential                                                             
   LCOR   =        T    correct aug charges                                                         
   LPAW   =        T    paw PP                                                                      
   EAUG   =  446.014                                                                                
   DEXC   =    0.000                                                                                
   RMAX   =    2.563    core radius for proj-oper                                                   
   RAUG   =    1.300    factor for augmentation sphere                                              
   RDEP   =    2.641    radius for radial grids                                                     
   RDEPT  =    2.031    core radius for aug-charge                                                  
                                                                                                    
   Atomic configuration                                                                             
   11 entries                                                                                       
     n  l   j            E        occ.                                                              
     1  0  0.50    -19819.0341   2.0000                                                             
     2  0  0.50     -2799.0127   2.0000                                                             
     2  1  1.50     -2502.0276   6.0000                                                             
     3  0  0.50      -476.4449   2.0000                                                             
     3  1  1.50      -379.1496   6.0000                                                             
     3  2  2.50      -220.9367  10.0000                                                             
     4  0  0.50       -64.3378   2.0000                                                             
     5  0  0.50        -4.0862   1.0000                                                             
     4  1  1.50       -38.4773   6.0000                                                             
     4  2  2.50        -3.7535   5.0000                                                             
     4  3  2.50        -1.3606   0.0000                                                             
   Description                                                                                      
     l       E           TYP  RCUT    TYP  RCUT                                                     
     0    -64.3377829     23  2.100                                                                 
     0     -4.0861640     23  2.400                                                                 
     1    -38.4772993     23  2.100                                                                 
     1     13.6058260     23  2.100                                                                 
     2     -3.7534941     23  2.400                                                                 
     2     -5.1140767     23  2.400                                                                 
     3     -4.0817478     23  2.500                                                                 
  local pseudopotential read in
  partial core-charges read in
  partial kinetic energy density read in
  atomic valenz-charges read in
  non local Contribution for L=           0  read in
    real space projection operators read in
  non local Contribution for L=           0  read in
    real space projection operators read in
  non local Contribution for L=           1  read in
    real space projection operators read in
  non local Contribution for L=           1  read in
    real space projection operators read in
  non local Contribution for L=           2  read in
    real space projection operators read in
  non local Contribution for L=           2  read in
    real space projection operators read in
    PAW grid and wavefunctions read in
 
   number of l-projection  operators is LMAX  =           6
   number of lm-projection operators is LMMAX =          18
 
 POTCAR:    PAW_PBE Ta_pv 07Sep2000               
   SHA256 =  00d0a14a36c127416459414afb8617d9754996fffa60a2465888e660b20a452f Ta_pv/POTCAR          
   COPYR  = (c) Copyright 07Sep2000 Georg Kresse                                                    
   COPYR  = This file is part of the software VASP. Any use, copying, and all other rights are regul
   COPYR  = If you do not have a valid VASP license, you may not use, copy or distribute this file. 
   VRHFIN =Ta:  5p6s5d                                                                              
   LEXCH  = PE                                                                                      
   EATOM  =  1047.1984 eV,   76.9669 Ry                                                             
                                                                                                    
   TITEL  = PAW_PBE Ta_pv 07Sep2000                                                                 
   LULTRA =        F    use ultrasoft PP ?                                                          
   IUNSCR =        1    unscreen: 0-lin 1-nonlin 2-no                                               
   RPACOR =    2.330    partial core radius                                                         
   POMASS =  180.948; ZVAL   =   11.000    mass and valenz                                          
   RCORE  =    2.500    outmost cutoff radius                                                       
   RWIGS  =    2.840; RWIGS  =    1.503    wigner-seitz radius (au A)                               
   ENMAX  =  223.667; ENMIN  =  167.750 eV                                                          
   RCLOC  =    2.205    cutoff for local pot                                                        
   LCOR   =        T    correct aug charges                                                         
   LPAW   =        T    paw PP                                                                      
   EAUG   =  377.421                                                                                
   DEXC   =    0.000                                                                                
   RMAX   =    2.551    core radius for proj-oper                                                   
   RAUG   =    1.300    factor for augmentation sphere                                              
   RDEP   =    2.526    radius for radial grids                                                     
   RDEPT  =    2.132    core radius for aug-charge                                                  
                                                                                                    
   Atomic configuration                                                                             
   15 entries                                                                                       
     n  l   j            E        occ.                                                              
     1  0  0.50    -67341.2801   2.0000                                                             
     2  0  0.50    -11566.9369   2.0000                                                             
     2  1  1.50    -10134.1175   6.0000                                                             
     3  0  0.50     -2648.5614   2.0000                                                             
     3  1  1.50     -2222.6006   6.0000                                                             
     3  2  2.50     -1726.3114  10.0000                                                             
     4  0  0.50      -538.6957   2.0000                                                             
     4  1  1.50      -399.0125   6.0000                                                             
     4  2  2.50      -220.3955  10.0000                                                             
     4  3  3.50       -23.0371  14.0000                                                             
     5  0  0.50       -71.2900   2.0000                                                             
     5  1  1.50       -37.8224   6.0000                                                             
     5  2  2.50        -2.6455   4.0000                                                             
     6  0  0.50        -4.9623   1.0000                                                             
     5  3  2.50        -1.3606   0.0000                                                             
   Description                                                                                      
     l       E           TYP  RCUT    TYP  RCUT                                                     
     1    -37.8224449     23  2.500                                                                 
     1      1.3605826     23  2.500                                                                 
     2     -2.6454718     23  2.500                                                                 
     2     -0.6258570     23  2.500                                                                 
     0     -4.9622674     23  2.500                                                                 
     0      4.7531427     23  2.500                                                                 
  local pseudopotential read in
  partial core-charges read in
  partial kinetic energy density read in
  atomic valenz-charges read in
  non local Contribution for L=           1  read in
    real space projection operators read in
  non local Contribution for L=           1  read in
    real space projection operators read in
  non local Contribution for L=           2  read in
    real space projection operators read in
  non local Contribution for L=           2  read in
    real space projection operators read in
  non local Contribution for L=           0  read in
    real space projection operators read in
  non local Contribution for L=           0  read in
    real space projection operators read in
    PAW grid and wavefunctions read in
 
   number of l-projection  operators is LMAX  =           6
   number of lm-projection operators is LMMAX =          18
 
 POTCAR:    PAW_PBE W_sv 04Sep2015                
   SHA256 =  931c2d770f65867ef30f3db3421922900fc0890ebac5c3e12f63b6a2064023d7 W_sv/POTCAR           
   COPYR  = (c) Copyright 04Sep2015 Georg Kresse                                                    
   COPYR  = This file is part of the software VASP. Any use, copying, and all other rights are regul
   COPYR  = If you do not have a valid VASP license, you may not use, copy or distribute this file. 
   VRHFIN =W : 5p6s5d                                                                               
   LEXCH  = PE                                                                                      
   EATOM  =  1865.5791 eV,  137.1162 Ry                                                             
                                                                                                    
   TITEL  = PAW_PBE W_sv 04Sep2015                                                                  
   LULTRA =        F    use ultrasoft PP ?                                                          
   IUNSCR =        1    unscreen: 0-lin 1-nonlin 2-no                                               
   RPACOR =    2.330    partial core radius                                                         
   POMASS =  183.850; ZVAL   =   14.000    mass and valenz                                          
   RCORE  =    2.500    outmost cutoff radius                                                       
   RWIGS  =    2.750; RWIGS  =    1.455    wigner-seitz radius (au A)                               
   ENMAX  =  223.057; ENMIN  =  167.293 eV                                                          
   ICORE  =        3    local potential                                                             
   LCOR   =        T    correct aug charges                                                         
   LPAW   =        T    paw PP                                                                      
   EAUG   =  373.438                                                                                
   DEXC   =    0.000                                                                                
   RMAX   =    2.565    core radius for proj-oper                                                   
   RAUG   =    1.300    factor for augmentation sphere                                              
   RDEP   =    2.539    radius for radial grids                                                     
   RDEPT  =    2.126    core radius for aug-charge                                                  
                                                                                                    
   Atomic configuration                                                                             
   15 entries                                                                                       
     n  l   j            E        occ.                                                              
     1  0  0.50    -69465.5834   2.0000                                                             
     2  0  0.50    -11986.2640   2.0000                                                             
     2  1  1.50    -10479.8613   6.0000                                                             
     3  0  0.50     -2759.0756   2.0000                                                             
     3  1  1.50     -2313.1855   6.0000                                                             
     3  2  2.50     -1801.1183  10.0000                                                             
     4  0  0.50      -567.6789   2.0000                                                             
     4  1  1.50      -421.4692   6.0000                                                             
     4  2  2.50      -236.3471  10.0000                                                             
     4  3  3.50       -31.2665  14.0000                                                             
     5  0  0.50       -77.1084   2.0000                                                             
     6  0  0.50        -5.1438   1.0000                                                             
     5  1  1.50       -41.3856   6.0000                                                             
     5  2  2.50        -3.3185   5.0000                                                             
     5  3  2.50        -1.3606   0.0000                                                             
   Description                                                                                      
     l       E           TYP  RCUT    TYP  RCUT                                                     
     0    -77.1084470     23  2.100                                                                 
     0     -5.1437956     23  2.300                                                                 
     1    -41.3855615     23  2.500                                                                 
     1     -2.7211652     23  2.500                                                                 
     2     -3.3185025     23  2.500                                                                 
     2     -1.5965151     23  2.500                                                                 
     3     -1.3605826     23  2.500                                                                 
  local pseudopotential read in
  partial core-charges read in
  partial kinetic energy density read in
  kinetic energy density of atom read in
  atomic valenz-charges read in
  non local Contribution for L=           0  read in
    real space projection operators read in
  non local Contribution for L=           0  read in
    real space projection operators read in
  non local Contribution for L=           1  read in
    real space projection operators read in
  non local Contribution for L=           1  read in
    real space projection operators read in
  non local Contribution for L=           2  read in
    real space projection operators read in
  non local Contribution for L=           2  read in
    real space projection operators read in
    PAW grid and wavefunctions read in
 
   number of l-projection  operators is LMAX  =           6
   number of lm-projection operators is LMMAX =          18
 
 -----------------------------------------------------------------------------
|                                                                             |
|               ----> ADVICE to this user running VASP <----                  |
|                                                                             |
|     You have a (more or less) 'large supercell' and for larger cells it     |
|     might be more efficient to use real-space projection operators.         |
|     Therefore, try LREAL= Auto in the INCAR file.                           |
|     Mind: For very accurate calculation, you might also keep the            |
|     reciprocal projection scheme (i.e. LREAL=.FALSE.).                      |
|                                                                             |
 -----------------------------------------------------------------------------

  PAW_PBE Nb_sv 25May2007               :
 energy of atom  1       EATOM=-1555.1913
 kinetic energy error for atom=    0.2155 (will be added to EATOM!!)
  PAW_PBE Mo_sv 02Feb2006               :
 energy of atom  2       EATOM=-1862.2866
 kinetic energy error for atom=    0.1102 (will be added to EATOM!!)
  PAW_PBE Ta_pv 07Sep2000               :
 energy of atom  3       EATOM=-1047.1984
 kinetic energy error for atom=    0.0394 (will be added to EATOM!!)
  PAW_PBE W_sv 04Sep2015                :
 energy of atom  4       EATOM=-1865.5791
 kinetic energy error for atom=    0.0589 (will be added to EATOM!!)
 
 
 POSCAR: Nb-Mo-Ta-W alloy
  positions in direct lattice
  No initial velocities read in
 exchange correlation table for  LEXCH =        8
   RHO(1)=    0.500       N(1)  =     2000
   RHO(2)=  100.500       N(2)  =     4000
 


--------------------------------------------------------------------------------------------------------


 ion  position               nearest neighbor table
   1  0.625  0.125  0.250-   8 2.85  17 2.85  18 2.85  26 2.85  31 2.85  49 2.85  50 2.85  59 2.85
                            42 3.29  34 3.29  34 3.29
   2  0.125  0.375  0.750-  10 2.85  16 2.85  25 2.85  28 2.85  33 2.85  52 2.85  56 2.85  58 2.85
                            51 3.29  44 3.29
   3  0.875  0.125  0.750-   4 2.85  14 2.85  16 2.85  18 2.85  26 2.85  33 2.85  50 2.85  59 2.85
                            45 3.29  34 3.29  44 3.29
   4  0.000  0.000  0.000-   3 2.85   6 2.85  12 2.85  20 2.85  32 2.85  45 2.85  54 2.85  63 2.85
                            39 3.29  33 3.29
   5  0.375  0.875  0.250-  11 2.85  17 2.85  22 2.85  31 2.85  37 2.85  41 2.85  46 2.85  47 2.85
                            42 3.29
   6  0.125  0.875  0.750-   4 2.85  11 2.85  14 2.85  22 2.85  37 2.85  39 2.85  43 2.85  46 2.85
                            45 3.29
   7  0.125  0.625  0.250-  10 2.85  11 2.85  25 2.85  28 2.85  39 2.85  43 2.85  46 2.85  58 2.85

   8  0.500  0.250  0.000-   1 2.85   9 2.85  19 2.85  29 2.85  34 2.85  42 2.85  51 2.85  62 2.85
                            35 3.29  52 3.29  49 3.29  49 3.29
   9  0.375  0.125  0.750-   8 2.85  17 2.85  22 2.85  31 2.85  37 2.85  49 2.85  52 2.85  56 2.85
                            51 3.29  42 3.29  34 3.29  42 3.29
  10  0.250  0.500  0.500-   2 2.85   7 2.85  15 2.85  21 2.85  51 2.85  53 2.85  57 2.85  62 2.85

  11  0.250  0.750  0.500-   5 2.85   6 2.85   7 2.85  21 2.85  53 2.85  54 2.85  57 2.85  60 2.85
                            37 3.29  43 3.29  46 3.29  47 3.29  46 3.29
  12  0.875  0.125  0.250-   4 2.85  14 2.85  16 2.85  18 2.85  26 2.85  33 2.85  50 2.85  59 2.85
                            32 3.29
  13  0.625  0.625  0.750-  27 2.85  30 2.85  35 2.85  36 2.85  41 2.85  47 2.85  48 2.85  64 2.85
                            38 3.29  40 3.29  40 3.29
  14  0.000  0.000  0.500-   3 2.85   6 2.85  12 2.85  20 2.85  32 2.85  45 2.85  54 2.85  63 2.85
                            16 3.29  37 3.29  59 3.29  43 3.29
  15  0.125  0.375  0.250-  10 2.85  16 2.85  25 2.85  28 2.85  33 2.85  52 2.85  56 2.85  58 2.85
                            20 3.29  24 3.29  62 3.29
  16  0.000  0.250  0.500-   2 2.85   3 2.85  12 2.85  15 2.85  20 2.85  24 2.85  44 2.85  63 2.85
                            14 3.29  50 3.29  56 3.29  58 3.29  33 3.29  33 3.29
  17  0.500  0.000  0.000-   1 2.85   5 2.85   9 2.85  34 2.85  38 2.85  42 2.85  55 2.85  60 2.85
                            41 3.29  31 3.29  18 3.29  22 3.29  31 3.29
  18  0.750  0.000  0.000-   1 2.85   3 2.85  12 2.85  32 2.85  34 2.85  38 2.85  45 2.85  55 2.85
                            17 3.29  26 3.29  36 3.29  59 3.29  59 3.29
  19  0.625  0.375  0.750-   8 2.85  26 2.85  27 2.85  30 2.85  35 2.85  48 2.85  49 2.85  50 2.85
                            34 3.29  29 3.29  44 3.29  51 3.29  29 3.29
  20  0.125  0.125  0.250-   4 2.85  14 2.85  16 2.85  22 2.85  33 2.85  37 2.85  52 2.85  56 2.85
                            15 3.29  54 3.29  42 3.29  63 3.29  63 3.29
  21  0.375  0.625  0.250-  10 2.85  11 2.85  27 2.85  28 2.85  35 2.85  41 2.85  46 2.85  47 2.85
                            40 3.29  57 3.29  62 3.29  57 3.29
  22  0.250  0.000  0.000-   5 2.85   6 2.85   9 2.85  20 2.85  42 2.85  54 2.85  60 2.85  63 2.85
                            52 3.29  37 3.29  17 3.29  46 3.29  37 3.29
  23  0.875  0.625  0.250-  25 2.85  30 2.85  36 2.85  39 2.85  43 2.85  48 2.85  58 2.85  64 2.85
                            32 3.29  40 3.29  61 3.29  24 3.29  61 3.29
  24  0.875  0.375  0.250-  16 2.85  25 2.85  26 2.85  30 2.85  33 2.85  48 2.85  50 2.85  58 2.85
                            44 3.29  29 3.29  15 3.29  23 3.29  44 3.29
  25  0.000  0.500  0.000-   2 2.85   7 2.85  15 2.85  23 2.85  24 2.85  44 2.85  53 2.85  61 2.85
                            39 3.29  28 3.29  30 3.29  58 3.29  33 3.29  58 3.29
  26  0.750  0.250  0.000-   1 2.85   3 2.85  12 2.85  19 2.85  24 2.85  29 2.85  34 2.85  44 2.85
                            33 3.29  18 3.29  30 3.29  50 3.29  50 3.29
  27  0.500  0.500  0.500-  13 2.85  19 2.85  21 2.85  29 2.85  40 2.85  51 2.85  57 2.85  62 2.85
                            49 3.29  35 3.29  47 3.29  48 3.29  35 3.29
  28  0.250  0.500  0.000-   2 2.85   7 2.85  15 2.85  21 2.85  51 2.85  53 2.85  57 2.85  62 2.85
                            52 3.29  35 3.29  46 3.29  25 3.29
  29  0.625  0.375  0.250-   8 2.85  26 2.85  27 2.85  30 2.85  35 2.85  48 2.85  49 2.85  50 2.85
                            19 3.29  24 3.29  40 3.29  62 3.29  19 3.29
  30  0.750  0.500  0.000-  13 2.85  19 2.85  23 2.85  24 2.85  29 2.85  40 2.85  44 2.85  61 2.85
                            36 3.29  26 3.29  25 3.29  48 3.29  35 3.29  48 3.29
  31  0.500  0.000  0.500-   1 2.85   5 2.85   9 2.85  34 2.85  38 2.85  42 2.85  55 2.85  60 2.85
                            47 3.29  49 3.29  17 3.29  59 3.29  37 3.29  17 3.29
  32  0.875  0.875  0.250-   4 2.85  14 2.85  18 2.85  36 2.85  39 2.85  43 2.85  59 2.85  64 2.85
                            45 3.29  54 3.29  55 3.29  23 3.29  12 3.29  45 3.29
  33  0.000  0.250  0.000-   2 2.85   3 2.85  12 2.85  15 2.85  20 2.85  24 2.85  44 2.85  63 2.85
                            25 3.29  26 3.29   4 3.29  52 3.29  16 3.29  16 3.29
  34  0.625  0.125  0.750-   8 2.85  17 2.85  18 2.85  26 2.85  31 2.85  49 2.85  50 2.85  59 2.85
                             3 3.29  38 3.29   1 3.29  19 3.29   9 3.29   1 3.29
  35  0.500  0.500  0.000-  13 2.85  19 2.85  21 2.85  29 2.85  40 2.85  51 2.85  57 2.85  62 2.85
                            27 3.29  41 3.29  28 3.29   8 3.29  30 3.29  27 3.29
  36  0.750  0.750  0.000-  13 2.85  23 2.85  32 2.85  38 2.85  40 2.85  45 2.85  55 2.85  61 2.85
                            41 3.29  30 3.29  39 3.29  18 3.29  64 3.29  64 3.29
  37  0.250  0.000  0.500-   5 2.85   6 2.85   9 2.85  20 2.85  42 2.85  54 2.85  60 2.85  63 2.85
                            14 3.29  11 3.29  56 3.29  22 3.29  31 3.29  22 3.29
  38  0.625  0.875  0.750-  17 2.85  18 2.85  31 2.85  36 2.85  41 2.85  47 2.85  59 2.85  64 2.85
                            13 3.29  55 3.29  34 3.29  60 3.29  45 3.29  55 3.29
  39  0.000  0.750  0.000-   6 2.85   7 2.85  23 2.85  32 2.85  45 2.85  53 2.85  54 2.85  61 2.85
                            25 3.29  46 3.29   4 3.29  36 3.29  43 3.29  43 3.29
  40  0.625  0.625  0.250-  27 2.85  30 2.85  35 2.85  36 2.85  41 2.85  47 2.85  48 2.85  64 2.85
                            29 3.29  21 3.29  23 3.29  55 3.29  13 3.29  13 3.29
  41  0.500  0.750  0.000-   5 2.85  13 2.85  21 2.85  38 2.85  40 2.85  55 2.85  57 2.85  60 2.85
                            46 3.29  47 3.29  36 3.29  17 3.29  35 3.29  47 3.29
  42  0.375  0.125  0.250-   8 2.85  17 2.85  22 2.85  31 2.85  37 2.85  49 2.85  52 2.85  56 2.85
                             5 3.29  20 3.29   1 3.29   9 3.29  62 3.29   9 3.29
  43  0.000  0.750  0.500-   6 2.85   7 2.85  23 2.85  32 2.85  45 2.85  53 2.85  54 2.85  61 2.85
                            14 3.29  39 3.29  58 3.29  11 3.29  64 3.29  39 3.29
  44  0.875  0.375  0.750-  16 2.85  25 2.85  26 2.85  30 2.85  33 2.85  48 2.85  50 2.85  58 2.85
                            24 3.29   3 3.29   2 3.29  19 3.29  61 3.29  24 3.29
  45  0.875  0.875  0.750-   4 2.85  14 2.85  18 2.85  36 2.85  39 2.85  43 2.85  59 2.85  64 2.85
                             6 3.29  32 3.29   3 3.29  61 3.29  38 3.29  32 3.29
  46  0.250  0.750  0.000-   5 2.85   6 2.85   7 2.85  21 2.85  53 2.85  54 2.85  57 2.85  60 2.85
                            41 3.29  11 3.29  22 3.29  28 3.29  39 3.29  11 3.29
  47  0.500  0.750  0.500-   5 2.85  13 2.85  21 2.85  38 2.85  40 2.85  55 2.85  57 2.85  60 2.85
                            41 3.29  31 3.29  11 3.29  27 3.29  64 3.29  41 3.29
  48  0.750  0.500  0.500-  13 2.85  19 2.85  23 2.85  24 2.85  29 2.85  40 2.85  44 2.85  61 2.85
                            30 3.29  50 3.29  58 3.29  27 3.29  64 3.29  30 3.29
  49  0.500  0.250  0.500-   1 2.85   9 2.85  19 2.85  29 2.85  34 2.85  42 2.85  51 2.85  62 2.85
                             8 3.29  50 3.29  31 3.29  56 3.29  27 3.29   8 3.29
  50  0.750  0.250  0.500-   1 2.85   3 2.85  12 2.85  19 2.85  24 2.85  29 2.85  34 2.85  44 2.85
                            26 3.29  16 3.29  48 3.29  49 3.29  59 3.29  26 3.29
  51  0.375  0.375  0.750-   8 2.85  10 2.85  27 2.85  28 2.85  35 2.85  49 2.85  52 2.85  56 2.85
                             9 3.29   2 3.29  19 3.29  57 3.29  62 3.29  62 3.29
  52  0.250  0.250  0.000-   2 2.85   9 2.85  15 2.85  20 2.85  42 2.85  51 2.85  62 2.85  63 2.85
                             8 3.29  22 3.29  56 3.29  28 3.29  33 3.29  56 3.29
  53  0.125  0.625  0.750-  10 2.85  11 2.85  25 2.85  28 2.85  39 2.85  43 2.85  46 2.85  58 2.85
                            57 3.29  61 3.29
  54  0.125  0.875  0.250-   4 2.85  11 2.85  14 2.85  22 2.85  37 2.85  39 2.85  43 2.85  46 2.85
                            20 3.29  32 3.29
  55  0.625  0.875  0.250-  17 2.85  18 2.85  31 2.85  36 2.85  41 2.85  47 2.85  59 2.85  64 2.85
                            38 3.29  40 3.29  32 3.29  38 3.29
  56  0.250  0.250  0.500-   2 2.85   9 2.85  15 2.85  20 2.85  42 2.85  51 2.85  62 2.85  63 2.85
                            37 3.29  52 3.29  16 3.29  49 3.29  52 3.29
  57  0.375  0.625  0.750-  10 2.85  11 2.85  27 2.85  28 2.85  35 2.85  41 2.85  46 2.85  47 2.85
                            21 3.29  51 3.29  53 3.29  60 3.29  21 3.29
  58  0.000  0.500  0.500-   2 2.85   7 2.85  15 2.85  23 2.85  24 2.85  44 2.85  53 2.85  61 2.85
                            16 3.29  48 3.29  25 3.29  43 3.29  25 3.29
  59  0.750  0.000  0.500-   1 2.85   3 2.85  12 2.85  32 2.85  34 2.85  38 2.85  45 2.85  55 2.85
                            31 3.29  14 3.29  50 3.29  18 3.29  64 3.29  18 3.29
  60  0.375  0.875  0.750-  11 2.85  17 2.85  22 2.85  31 2.85  37 2.85  41 2.85  46 2.85  47 2.85
                            38 3.29  57 3.29
  61  0.875  0.625  0.750-  25 2.85  30 2.85  36 2.85  39 2.85  43 2.85  48 2.85  58 2.85  64 2.85
                            23 3.29  53 3.29  44 3.29  45 3.29  23 3.29
  62  0.375  0.375  0.250-   8 2.85  10 2.85  27 2.85  28 2.85  35 2.85  49 2.85  52 2.85  56 2.85
                            42 3.29  21 3.29  51 3.29  29 3.29  15 3.29  51 3.29
  63  0.125  0.125  0.750-   4 2.85  14 2.85  16 2.85  22 2.85  33 2.85  37 2.85  52 2.85  56 2.85
                            20 3.29  20 3.29
  64  0.750  0.750  0.500-  13 2.85  23 2.85  32 2.85  38 2.85  40 2.85  45 2.85  55 2.85  61 2.85
                            47 3.29  48 3.29  43 3.29  59 3.29  36 3.29  36 3.29
 
  LATTYP: Found a simple tetragonal cell.
 ALAT       =    13.1600000000
 C/A-ratio  =     0.5000000000
  
  Lattice vectors:
  
 A1 = (  13.1600000000,   0.0000000000,   0.0000000000)
 A2 = (   0.0000000000,  13.1600000000,   0.0000000000)
 A3 = (   0.0000000000,   0.0000000000,   6.5800000000)


Analysis of symmetry for initial positions (statically):
=====================================================================
 Subroutine PRICEL returns:
 Original cell was already a primitive cell.
 

 Routine SETGRP: Setting up the symmetry group for a 
 simple tetragonal supercell.


 Subroutine GETGRP returns: Found  1 space group operations
 (whereof  1 operations were pure point group operations)
 out of a pool of 16 trial point group operations.


The static configuration has the point symmetry C_1 .


Analysis of symmetry for dynamics (positions and initial velocities):
=====================================================================
 Subroutine PRICEL returns:
 Original cell was already a primitive cell.
 

 Routine SETGRP: Setting up the symmetry group for a 
 simple tetragonal supercell.


 Subroutine GETGRP returns: Found  1 space group operations
 (whereof  1 operations were pure point group operations)
 out of a pool of 16 trial point group operations.


The dynamic configuration has the point symmetry C_1 .


 Subroutine INISYM returns: Found  1 space group operations
 (whereof  1 operations are pure point group operations),
 and found     1 'primitive' translations


----------------------------------------------------------------------------------------

                                     Primitive cell                                     

  volume of cell :    1139.5612

  direct lattice vectors                    reciprocal lattice vectors
    13.160000000  0.000000000  0.000000000     0.075987842  0.000000000  0.000000000
     0.000000000 13.160000000  0.000000000     0.000000000  0.075987842  0.000000000
     0.000000000  0.000000000  6.580000000     0.000000000  0.000000000  0.151975684

  length of vectors
    13.160000000 13.160000000  6.580000000     0.075987842  0.075987842  0.151975684

  position of ions in fractional coordinates (direct lattice)
     0.625000000  0.125000000  0.250000000
     0.125000000  0.375000000  0.750000000
     0.875000000  0.125000000  0.750000000
     0.000000000  0.000000000  0.000000000
     0.375000000  0.875000000  0.250000000
     0.125000000  0.875000000  0.750000000
     0.125000000  0.625000000  0.250000000
     0.500000000  0.250000000  0.000000000
     0.375000000  0.125000000  0.750000000
     0.250000000  0.500000000  0.500000000
     0.250000000  0.750000000  0.500000000
     0.875000000  0.125000000  0.250000000
     0.625000000  0.625000000  0.750000000
     0.000000000  0.000000000  0.500000000
     0.125000000  0.375000000  0.250000000
     0.000000000  0.250000000  0.500000000
     0.500000000  0.000000000  0.000000000
     0.750000000  0.000000000  0.000000000
     0.625000000  0.375000000  0.750000000
     0.125000000  0.125000000  0.250000000
     0.375000000  0.625000000  0.250000000
     0.250000000  0.000000000  0.000000000
     0.875000000  0.625000000  0.250000000
     0.875000000  0.375000000  0.250000000
     0.000000000  0.500000000  0.000000000
     0.750000000  0.250000000  0.000000000
     0.500000000  0.500000000  0.500000000
     0.250000000  0.500000000  0.000000000
     0.625000000  0.375000000  0.250000000
     0.750000000  0.500000000  0.000000000
     0.500000000  0.000000000  0.500000000
     0.875000000  0.875000000  0.250000000
     0.000000000  0.250000000  0.000000000
     0.625000000  0.125000000  0.750000000
     0.500000000  0.500000000  0.000000000
     0.750000000  0.750000000  0.000000000
     0.250000000  0.000000000  0.500000000
     0.625000000  0.875000000  0.750000000
     0.000000000  0.750000000  0.000000000
     0.625000000  0.625000000  0.250000000
     0.500000000  0.750000000  0.000000000
     0.375000000  0.125000000  0.250000000
     0.000000000  0.750000000  0.500000000
     0.875000000  0.375000000  0.750000000
     0.875000000  0.875000000  0.750000000
     0.250000000  0.750000000  0.000000000
     0.500000000  0.750000000  0.500000000
     0.750000000  0.500000000  0.500000000
     0.500000000  0.250000000  0.500000000
     0.750000000  0.250000000  0.500000000
     0.375000000  0.375000000  0.750000000
     0.250000000  0.250000000  0.000000000
     0.125000000  0.625000000  0.750000000
     0.125000000  0.875000000  0.250000000
     0.625000000  0.875000000  0.250000000
     0.250000000  0.250000000  0.500000000
     0.375000000  0.625000000  0.750000000
     0.000000000  0.500000000  0.500000000
     0.750000000  0.000000000  0.500000000
     0.375000000  0.875000000  0.750000000
     0.875000000  0.625000000  0.750000000
     0.375000000  0.375000000  0.250000000
     0.125000000  0.125000000  0.750000000
     0.750000000  0.750000000  0.500000000

  ion indices of the primitive-cell ions
   primitive index   ion index
                 1           1
                 2           2
                 3           3
                 4           4
                 5           5
                 6           6
                 7           7
                 8           8
                 9           9
                10          10
                11          11
                12          12
                13          13
                14          14
                15          15
                16          16
                17          17
                18          18
                19          19
                20          20
                21          21
                22          22
                23          23
                24          24
                25          25
                26          26
                27          27
                28          28
                29          29
                30          30
                31          31
                32          32
                33          33
                34          34
                35          35
                36          36
                37          37
                38          38
                39          39
                40          40
                41          41
                42          42
                43          43
                44          44
                45          45
                46          46
                47          47
                48          48
                49          49
                50          50
                51          51
                52          52
                53          53
                54          54
                55          55
                56          56
                57          57
                58          58
                59          59
                60          60
                61          61
                62          62
                63          63
                64          64

----------------------------------------------------------------------------------------

 
 
 KPOINTS: K-Spacing Value to Generate K-Mesh: 0.03

Automatic generation of k-mesh.
 Grid dimensions read from file:
 generate k-points for:    3    3    5

 Generating k-lattice:

  Cartesian coordinates                     Fractional coordinates (reciprocal lattice)
     0.025329281  0.000000000  0.000000000     0.333333333  0.000000000  0.000000000
     0.000000000  0.025329281  0.000000000     0.000000000  0.333333333  0.000000000
     0.000000000  0.000000000  0.030395137     0.000000000  0.000000000  0.200000000

  Length of vectors
     0.025329281  0.025329281  0.030395137

  Shift w.r.t. Gamma in fractional coordinates (k-lattice)
     0.000000000  0.000000000  0.000000000

 
 Subroutine IBZKPT returns following result:
 ===========================================
 
 Found     23 irreducible k-points:
 
 Following reciprocal coordinates:
            Coordinates               Weight
  0.000000  0.000000  0.000000      1.000000
  0.333333  0.000000  0.000000      2.000000
  0.000000  0.333333  0.000000      2.000000
  0.333333  0.333333  0.000000      2.000000
 -0.333333  0.333333  0.000000      2.000000
  0.000000  0.000000  0.200000      2.000000
  0.333333  0.000000  0.200000      2.000000
  0.000000  0.333333  0.200000      2.000000
 -0.333333  0.000000  0.200000      2.000000
  0.000000 -0.333333  0.200000      2.000000
  0.333333  0.333333  0.200000      2.000000
 -0.333333  0.333333  0.200000      2.000000
 -0.333333 -0.333333  0.200000      2.000000
  0.333333 -0.333333  0.200000      2.000000
  0.000000  0.000000  0.400000      2.000000
  0.333333  0.000000  0.400000      2.000000
  0.000000  0.333333  0.400000      2.000000
 -0.333333  0.000000  0.400000      2.000000
  0.000000 -0.333333  0.400000      2.000000
  0.333333  0.333333  0.400000      2.000000
 -0.333333  0.333333  0.400000      2.000000
 -0.333333 -0.333333  0.400000      2.000000
  0.333333 -0.333333  0.400000      2.000000
 
 Following cartesian coordinates:
            Coordinates               Weight
  0.000000  0.000000  0.000000      1.000000
  0.025329  0.000000  0.000000      2.000000
  0.000000  0.025329  0.000000      2.000000
  0.025329  0.025329  0.000000      2.000000
 -0.025329  0.025329  0.000000      2.000000
  0.000000  0.000000  0.030395      2.000000
  0.025329  0.000000  0.030395      2.000000
  0.000000  0.025329  0.030395      2.000000
 -0.025329  0.000000  0.030395      2.000000
  0.000000 -0.025329  0.030395      2.000000
  0.025329  0.025329  0.030395      2.000000
 -0.025329  0.025329  0.030395      2.000000
 -0.025329 -0.025329  0.030395      2.000000
  0.025329 -0.025329  0.030395      2.000000
  0.000000  0.000000  0.060790      2.000000
  0.025329  0.000000  0.060790      2.000000
  0.000000  0.025329  0.060790      2.000000
 -0.025329  0.000000  0.060790      2.000000
  0.000000 -0.025329  0.060790      2.000000
  0.025329  0.025329  0.060790      2.000000
 -0.025329  0.025329  0.060790      2.000000
 -0.025329 -0.025329  0.060790      2.000000
  0.025329 -0.025329  0.060790      2.000000
 


--------------------------------------------------------------------------------------------------------




 Dimension of arrays:
   k-points           NKPTS =     23   k-points in BZ     NKDIM =     23   number of bands    NBANDS=    492
   number of dos      NEDOS =    301   number of ions     NIONS =     64
   non local maximal  LDIM  =      6   non local SUM 2l+1 LMDIM =     18
   total plane-waves  NPLWV = 176400
   max r-space proj   IRMAX =      1   max aug-charges    IRDMAX=   9034
   dimension x,y,z NGX =    70 NGY =   70 NGZ =   36
   dimension x,y,z NGXF=   140 NGYF=  140 NGZF=   72
   support grid    NGXF=   140 NGYF=  140 NGZF=   72
   ions per type =              13  17  22  12
   NGX,Y,Z   is equivalent  to a cutoff of   8.84,  8.84,  9.10 a.u.
   NGXF,Y,Z  is equivalent  to a cutoff of  17.69, 17.69, 18.19 a.u.

 SYSTEM =  unknown system                          
 POSCAR =  Nb-Mo-Ta-W alloy                        

 Startparameter for this run:
   NWRITE =      2    write-flag & timer
   PREC   = accura    normal or accurate (medium, high low for compatibility)
   ISTART =      0    job   : 0-new  1-cont  2-samecut
   ICHARG =      2    charge: 1-file 2-atom 10-const
   ISPIN  =      1    spin polarized calculation?
   LNONCOLLINEAR =      F non collinear calculations
   LSORBIT =      F    spin-orbit coupling
   INIWAV =      1    electr: 0-lowe 1-rand  2-diag
   LASPH  =      F    aspherical Exc in radial PAW
 Electronic Relaxation 1
   ENCUT  =  250.0 eV  18.37 Ry    4.29 a.u.  16.97 16.97  8.48*2*pi/ulx,y,z
   ENINI  =  250.0     initial cutoff
   ENAUG  =  455.7 eV  augmentation charge cutoff
   NELM   =     80;   NELMIN=  2; NELMDL= -5     # of ELM steps 
   EDIFF  = 0.1E-07   stopping-criterion for ELM
   LREAL  =      F    real-space projection
   NLSPLINE    = F    spline interpolate recip. space projectors
   LCOMPAT=      F    compatible to vasp.4.4
   GGA_COMPAT  = T    GGA compatible to vasp.4.4-vasp.4.6
   LMAXPAW     = -100 max onsite density
   LMAXMIX     =    2 max onsite mixed and CHGCAR
   VOSKOWN=      0    Vosko Wilk Nusair interpolation
   ROPT   =    0.00000   0.00000   0.00000   0.00000
 Ionic relaxation
   EDIFFG = -.1E-01   stopping-criterion for IOM
   NSW    =      0    number of steps for IOM
   NBLOCK =      1;   KBLOCK =      1    inner block; outer block 
   IBRION =     -1    ionic relax: 0-MD 1-quasi-New 2-CG
   NFREE  =      0    steps in history (QN), initial steepest desc. (CG)
   ISIF   =      2    stress and relaxation
   IWAVPR =     10    prediction:  0-non 1-charg 2-wave 3-comb
   ISYM   =      2    0-nonsym 1-usesym 2-fastsym
   LCORR  =      T    Harris-Foulkes like correction to forces

   POTIM  = 0.5000    time-step for ionic-motion
   TEIN   =    0.0    initial temperature
   TEBEG  =    0.0;   TEEND  =   0.0 temperature during run
   SMASS  =  -3.00    Nose mass-parameter (am)
   estimated Nose-frequenzy (Omega)   =  0.10E-29 period in steps = 0.13E+47 mass=  -0.396E-26a.u.
   SCALEE = 1.0000    scale energy and forces
   NPACO  =    256;   APACO  = 10.0  distance and # of slots for P.C.
   PSTRESS=    0.0 pullay stress

  Mass of Ions in am
   POMASS =  92.91 95.94180.95183.85
  Ionic Valenz
   ZVAL   =  13.00 14.00 11.00 14.00
  Atomic Wigner-Seitz radii
   RWIGS  =  -1.00 -1.00 -1.00 -1.00
  virtual crystal weights 
   VCA    =   1.00  1.00  1.00  1.00
   NELECT =     817.0000    total number of electrons
   NUPDOWN=      -1.0000    fix difference up-down

 DOS related values:
   EMIN   =  10.00;   EMAX   =-10.00  energy-range for DOS
   EFERMI =   0.00
   ISMEAR =     0;   SIGMA  =   0.02  broadening in eV -4-tet -1-fermi 0-gaus

 Electronic relaxation 2 (details)
   IALGO  =     38    algorithm
   LDIAG  =      T    sub-space diagonalisation (order eigenvalues)
   LSUBROT=      F    optimize rotation matrix (better conditioning)
   TURBO    =      0    0=normal 1=particle mesh
   IRESTART =      0    0=no restart 2=restart with 2 vectors
   NREBOOT  =      0    no. of reboots
   NMIN     =      0    reboot dimension
   EREF     =   0.00    reference energy to select bands
   IMIX   =      4    mixing-type and parameters
     AMIX     =   0.40;   BMIX     =  1.00
     AMIX_MAG =   1.60;   BMIX_MAG =  1.00
     AMIN     =   0.10
     WC   =   100.;   INIMIX=   1;  MIXPRE=   1;  MAXMIX= -45

 Intra band minimization:
   WEIMIN = 0.0000     energy-eigenvalue tresh-hold
   EBREAK =  0.51E-11  absolut break condition
   DEPER  =   0.30     relativ break condition  

   TIME   =   0.40     timestep for ELM

  volume/ion in A,a.u.               =      17.81       120.16
  Fermi-wavevector in a.u.,A,eV,Ry     =   1.465220  2.768865 29.209951  2.146871
  Thomas-Fermi vector in A             =   2.581103
 
 Write flags
   LWAVE        =      F    write WAVECAR
   LDOWNSAMPLE  =      F    k-point downsampling of WAVECAR
   LCHARG       =      F    write CHGCAR
   LVTOT        =      F    write LOCPOT, total local potential
   LVHAR        =      F    write LOCPOT, Hartree potential only
   LELF         =      F    write electronic localiz. function (ELF)
   LORBIT       =      0    0 simple, 1 ext, 2 COOP (PROOUT), +10 PAW based schemes


 Dipole corrections
   LMONO  =      F    monopole corrections only (constant potential shift)
   LDIPOL =      F    correct potential (dipole corrections)
   IDIPOL =      0    1-x, 2-y, 3-z, 4-all directions 
   EPSILON=  1.0000000 bulk dielectric constant

 Core level calculations are selected ICORELEVEL =  1
 Exchange correlation treatment:
   GGA     =    PE    GGA type
   LEXCH   =     8    internal setting for exchange type
   LIBXC   =     F    Libxc                    
   VOSKOWN =     0    Vosko Wilk Nusair interpolation
   LHFCALC =     F    Hartree Fock is set to
   LHFONE  =     F    Hartree Fock one center treatment
   AEXX    =    0.0000 exact exchange contribution

 Linear response parameters
   LEPSILON=     F    determine dielectric tensor
   LRPA    =     F    only Hartree local field effects (RPA)
   LNABLA  =     F    use nabla operator in PAW spheres
   LVEL    =     F    velocity operator in full k-point grid
   CSHIFT  =0.1000    complex shift for real part using Kramers Kronig
   OMEGAMAX=  -1.0    maximum frequency
   DEG_THRESHOLD= 0.2000000E-02 threshold for treating states as degnerate
   RTIME   =   -0.100 relaxation time in fs
  (WPLASMAI=    0.000 imaginary part of plasma frequency in eV, 0.658/RTIME)
   DFIELD  = 0.0000000 0.0000000 0.0000000 field for delta impulse in time
 
  Optional k-point grid parameters
   LKPOINTS_OPT  =     F    use optional k-point grid
   KPOINTS_OPT_MODE=     1    mode for optional k-point grid
 
 Orbital magnetization related:
   ORBITALMAG=     F  switch on orbital magnetization
   LCHIMAG   =     F  perturbation theory with respect to B field
   DQ        =  0.001000  dq finite difference perturbation B field
   LLRAUG    =     F  two centre corrections for induced B field



--------------------------------------------------------------------------------------------------------


 Static calculation
 charge density and potential will be updated during run
 non-spin polarized calculation
 Variant of blocked Davidson
 Davidson routine will perform the subspace rotation
 perform sub-space diagonalisation
    after iterative eigenvector-optimisation
 modified Broyden-mixing scheme, WC =      100.0
 initial mixing is a Kerker type mixing with AMIX =  0.4000 and BMIX =      1.0000
 Hartree-type preconditioning will be used
 using additional bands           83
 reciprocal scheme for non local part
 use partial core corrections
 calculate Harris-corrections to forces 
   (improved forces if not selfconsistent)
 use gradient corrections 
 use of overlap-Matrix (Vanderbilt PP)
 Gauss-broadening in eV      SIGMA  =   0.02


--------------------------------------------------------------------------------------------------------


  energy-cutoff  :      250.00
  volume of cell :     1139.56
      direct lattice vectors                 reciprocal lattice vectors
    13.160000000  0.000000000  0.000000000     0.075987842  0.000000000  0.000000000
     0.000000000 13.160000000  0.000000000     0.000000000  0.075987842  0.000000000
     0.000000000  0.000000000  6.580000000     0.000000000  0.000000000  0.151975684

  length of vectors
    13.160000000 13.160000000  6.580000000     0.075987842  0.075987842  0.151975684


 
 k-points in units of 2pi/SCALE and weight: K-Spacing Value to Generate K-Mesh: 0.03
   0.00000000  0.00000000  0.00000000       0.022
   0.02532928  0.00000000  0.00000000       0.044
   0.00000000  0.02532928  0.00000000       0.044
   0.02532928  0.02532928  0.00000000       0.044
  -0.02532928  0.02532928  0.00000000       0.044
   0.00000000  0.00000000  0.03039514       0.044
   0.02532928  0.00000000  0.03039514       0.044
   0.00000000  0.02532928  0.03039514       0.044
  -0.02532928  0.00000000  0.03039514       0.044
   0.00000000 -0.02532928  0.03039514       0.044
   0.02532928  0.02532928  0.03039514       0.044
  -0.02532928  0.02532928  0.03039514       0.044
  -0.02532928 -0.02532928  0.03039514       0.044
   0.02532928 -0.02532928  0.03039514       0.044
   0.00000000  0.00000000  0.06079027       0.044
   0.02532928  0.00000000  0.06079027       0.044
   0.00000000  0.02532928  0.06079027       0.044
  -0.02532928  0.00000000  0.06079027       0.044
   0.00000000 -0.02532928  0.06079027       0.044
   0.02532928  0.02532928  0.06079027       0.044
  -0.02532928  0.02532928  0.06079027       0.044
  -0.02532928 -0.02532928  0.06079027       0.044
   0.02532928 -0.02532928  0.06079027       0.044
 
 k-points in reciprocal lattice and weights: K-Spacing Value to Generate K-Mesh: 0.03
   0.00000000  0.00000000  0.00000000       0.022
   0.33333333  0.00000000  0.00000000       0.044
   0.00000000  0.33333333  0.00000000       0.044
   0.33333333  0.33333333  0.00000000       0.044
  -0.33333333  0.33333333  0.00000000       0.044
   0.00000000  0.00000000  0.20000000       0.044
   0.33333333  0.00000000  0.20000000       0.044
   0.00000000  0.33333333  0.20000000       0.044
  -0.33333333  0.00000000  0.20000000       0.044
   0.00000000 -0.33333333  0.20000000       0.044
   0.33333333  0.33333333  0.20000000       0.044
  -0.33333333  0.33333333  0.20000000       0.044
  -0.33333333 -0.33333333  0.20000000       0.044
   0.33333333 -0.33333333  0.20000000       0.044
   0.00000000  0.00000000  0.40000000       0.044
   0.33333333  0.00000000  0.40000000       0.044
   0.00000000  0.33333333  0.40000000       0.044
  -0.33333333  0.00000000  0.40000000       0.044
   0.00000000 -0.33333333  0.40000000       0.044
   0.33333333  0.33333333  0.40000000       0.044
  -0.33333333  0.33333333  0.40000000       0.044
  -0.33333333 -0.33333333  0.40000000       0.044
   0.33333333 -0.33333333  0.40000000       0.044
 
 position of ions in fractional coordinates (direct lattice) 
   0.62500000  0.12500000  0.25000000
   0.12500000  0.37500000  0.75000000
   0.87500000  0.12500000  0.75000000
   0.00000000  0.00000000  0.00000000
   0.37500000  0.87500000  0.25000000
   0.12500000  0.87500000  0.75000000
   0.12500000  0.62500000  0.25000000
   0.50000000  0.25000000  0.00000000
   0.37500000  0.12500000  0.75000000
   0.25000000  0.50000000  0.50000000
   0.25000000  0.75000000  0.50000000
   0.87500000  0.12500000  0.25000000
   0.62500000  0.62500000  0.75000000
   0.00000000  0.00000000  0.50000000
   0.12500000  0.37500000  0.25000000
   0.00000000  0.25000000  0.50000000
   0.50000000  0.00000000  0.00000000
   0.75000000  0.00000000  0.00000000
   0.62500000  0.37500000  0.75000000
   0.12500000  0.12500000  0.25000000
   0.37500000  0.62500000  0.25000000
   0.25000000  0.00000000  0.00000000
   0.87500000  0.62500000  0.25000000
   0.87500000  0.37500000  0.25000000
   0.00000000  0.50000000  0.00000000
   0.75000000  0.25000000  0.00000000
   0.50000000  0.50000000  0.50000000
   0.25000000  0.50000000  0.00000000
   0.62500000  0.37500000  0.25000000
   0.75000000  0.50000000  0.00000000
   0.50000000  0.00000000  0.50000000
   0.87500000  0.87500000  0.25000000
   0.00000000  0.25000000  0.00000000
   0.62500000  0.12500000  0.75000000
   0.50000000  0.50000000  0.00000000
   0.75000000  0.75000000  0.00000000
   0.25000000  0.00000000  0.50000000
   0.62500000  0.87500000  0.75000000
   0.00000000  0.75000000  0.00000000
   0.62500000  0.62500000  0.25000000
   0.50000000  0.75000000  0.00000000
   0.37500000  0.12500000  0.25000000
   0.00000000  0.75000000  0.50000000
   0.87500000  0.37500000  0.75000000
   0.87500000  0.87500000  0.75000000
   0.25000000  0.75000000  0.00000000
   0.50000000  0.75000000  0.50000000
   0.75000000  0.50000000  0.50000000
   0.50000000  0.25000000  0.50000000
   0.75000000  0.25000000  0.50000000
   0.37500000  0.37500000  0.75000000
   0.25000000  0.25000000  0.00000000
   0.12500000  0.62500000  0.75000000
   0.12500000  0.87500000  0.25000000
   0.62500000  0.87500000  0.25000000
   0.25000000  0.25000000  0.50000000
   0.37500000  0.62500000  0.75000000
   0.00000000  0.50000000  0.50000000
   0.75000000  0.00000000  0.50000000
   0.37500000  0.87500000  0.75000000
   0.87500000  0.62500000  0.75000000
   0.37500000  0.37500000  0.25000000
   0.12500000  0.12500000  0.75000000
   0.75000000  0.75000000  0.50000000
 
 position of ions in cartesian coordinates  (Angst):
   8.22500000  1.64500000  1.64500000
   1.64500000  4.93500000  4.93500000
  11.51500000  1.64500000  4.93500000
   0.00000000  0.00000000  0.00000000
   4.93500000 11.51500000  1.64500000
   1.64500000 11.51500000  4.93500000
   1.64500000  8.22500000  1.64500000
   6.58000000  3.29000000  0.00000000
   4.93500000  1.64500000  4.93500000
   3.29000000  6.58000000  3.29000000
   3.29000000  9.87000000  3.29000000
  11.51500000  1.64500000  1.64500000
   8.22500000  8.22500000  4.93500000
   0.00000000  0.00000000  3.29000000
   1.64500000  4.93500000  1.64500000
   0.00000000  3.29000000  3.29000000
   6.58000000  0.00000000  0.00000000
   9.87000000  0.00000000  0.00000000
   8.22500000  4.93500000  4.93500000
   1.64500000  1.64500000  1.64500000
   4.93500000  8.22500000  1.64500000
   3.29000000  0.00000000  0.00000000
  11.51500000  8.22500000  1.64500000
  11.51500000  4.93500000  1.64500000
   0.00000000  6.58000000  0.00000000
   9.87000000  3.29000000  0.00000000
   6.58000000  6.58000000  3.29000000
   3.29000000  6.58000000  0.00000000
   8.22500000  4.93500000  1.64500000
   9.87000000  6.58000000  0.00000000
   6.58000000  0.00000000  3.29000000
  11.51500000 11.51500000  1.64500000
   0.00000000  3.29000000  0.00000000
   8.22500000  1.64500000  4.93500000
   6.58000000  6.58000000  0.00000000
   9.87000000  9.87000000  0.00000000
   3.29000000  0.00000000  3.29000000
   8.22500000 11.51500000  4.93500000
   0.00000000  9.87000000  0.00000000
   8.22500000  8.22500000  1.64500000
   6.58000000  9.87000000  0.00000000
   4.93500000  1.64500000  1.64500000
   0.00000000  9.87000000  3.29000000
  11.51500000  4.93500000  4.93500000
  11.51500000 11.51500000  4.93500000
   3.29000000  9.87000000  0.00000000
   6.58000000  9.87000000  3.29000000
   9.87000000  6.58000000  3.29000000
   6.58000000  3.29000000  3.29000000
   9.87000000  3.29000000  3.29000000
   4.93500000  4.93500000  4.93500000
   3.29000000  3.29000000  0.00000000
   1.64500000  8.22500000  4.93500000
   1.64500000 11.51500000  1.64500000
   8.22500000 11.51500000  1.64500000
   3.29000000  3.29000000  3.29000000
   4.93500000  8.22500000  4.93500000
   0.00000000  6.58000000  3.29000000
   9.87000000  0.00000000  3.29000000
   4.93500000 11.51500000  4.93500000
  11.51500000  8.22500000  4.93500000
   4.93500000  4.93500000  1.64500000
   1.64500000  1.64500000  4.93500000
   9.87000000  9.87000000  3.29000000
 


--------------------------------------------------------------------------------------------------------


 k-point   1 :   0.0000 0.0000 0.0000  plane waves:   10181
 k-point   2 :   0.3333 0.0000 0.0000  plane waves:   10238
 k-point   3 :   0.0000 0.3333 0.0000  plane waves:   10238
 k-point   4 :   0.3333 0.3333 0.0000  plane waves:   10248
 k-point   5 :  -0.3333 0.3333 0.0000  plane waves:   10248
 k-point   6 :   0.0000 0.0000 0.2000  plane waves:   10193
 k-point   7 :   0.3333 0.0000 0.2000  plane waves:   10246
 k-point   8 :   0.0000 0.3333 0.2000  plane waves:   10246
 k-point   9 :  -0.3333 0.0000 0.2000  plane waves:   10246
 k-point  10 :   0.0000-0.3333 0.2000  plane waves:   10246
 k-point  11 :   0.3333 0.3333 0.2000  plane waves:   10238
 k-point  12 :  -0.3333 0.3333 0.2000  plane waves:   10238
 k-point  13 :  -0.3333-0.3333 0.2000  plane waves:   10238
 k-point  14 :   0.3333-0.3333 0.2000  plane waves:   10238
 k-point  15 :   0.0000 0.0000 0.4000  plane waves:   10201
 k-point  16 :   0.3333 0.0000 0.4000  plane waves:   10223
 k-point  17 :   0.0000 0.3333 0.4000  plane waves:   10223
 k-point  18 :  -0.3333 0.0000 0.4000  plane waves:   10223
 k-point  19 :   0.0000-0.3333 0.4000  plane waves:   10223
 k-point  20 :   0.3333 0.3333 0.4000  plane waves:   10193
 k-point  21 :  -0.3333 0.3333 0.4000  plane waves:   10193
 k-point  22 :  -0.3333-0.3333 0.4000  plane waves:   10193
 k-point  23 :   0.3333-0.3333 0.4000  plane waves:   10193

 maximum and minimum number of plane-waves per node :       880      830

 maximum number of plane-waves:     10248
 maximum index in each direction: 
   IXMAX=   17   IYMAX=   17   IZMAX=    8
   IXMIN=  -17   IYMIN=  -17   IZMIN=   -8


 parallel 3D FFT for wavefunctions:
    minimum data exchange during FFTs selected (reduces bandwidth)
 parallel 3D FFT for charge:
    minimum data exchange during FFTs selected (reduces bandwidth)


 total amount of memory used by VASP MPI-rank0    90282. kBytes
=======================================================================

   base      :      30000. kBytes
   nonl-proj :      12216. kBytes
   fftplans  :       1504. kBytes
   grid      :       2835. kBytes
   one-center:         93. kBytes
   wavefun   :      43634. kBytes
 
     INWAV:  cpu time      0.0000: real time      0.0163
 Broyden mixing: mesh for mixing (old mesh)
   NGX = 33   NGY = 33   NGZ = 17
  (NGX  =140   NGY  =140   NGZ  = 72)
  gives a total of  18513 points

 initial charge density was supplied:
 charge density of overlapping atoms calculated
 number of electron     817.0000000 magnetization 
 keeping initial charge density in first step


--------------------------------------------------------------------------------------------------------


 Maximum index for augmentation-charges          505 (set IRDMAX)


--------------------------------------------------------------------------------------------------------


 First call to EWALD:  gamma=   0.170
 Maximum number of real-space cells 2x 2x 4
 Maximum number of reciprocal cells 3x 3x 2

    FEWALD:  cpu time      0.1063: real time      0.1067


--------------------------------------- Iteration      1(   1)  ---------------------------------------


    POTLOK:  cpu time      0.2443: real time      0.3824
    SETDIJ:  cpu time      0.2049: real time      0.2061
     EDDAV:  cpu time     45.8512: real time     46.0908
       DOS:  cpu time      0.3846: real time      0.3872
    --------------------------------------------
      LOOP:  cpu time     46.6851: real time     47.0665

 eigenvalue-minimisations  : 23040
 total energy-change (2. order) : 0.7686326E+04  (-0.3178804E+05)
 number of electron     817.0000000 magnetization 
 augmentation part      817.0000000 magnetization 

 Free energy of the ion-electron system (eV)
  ---------------------------------------------------
  alpha Z        PSCENC =      7432.14066061
  Ewald energy   TEWEN  =    -83293.77318686
  -Hartree energ DENC   =    -15567.87966938
  -exchange      EXHF   =         0.00000000
  -V(xc)+E(xc)   XCENC  =      3072.68739637
  PAW double counting   =     77124.72699124   -75929.33751088
  entropy T*S    EENTRO =        -0.00483936
  eigenvalues    EBANDS =     -2447.65775385
  atomic energy  EATOM  =     97295.42356983
  Solvation  Ediel_sol  =         0.00000000
  ---------------------------------------------------
  free energy    TOTEN  =      7686.32565773 eV

  energy without entropy =     7686.33049709  energy(sigma->0) =     7686.32807741


--------------------------------------------------------------------------------------------------------




--------------------------------------- Iteration      1(   2)  ---------------------------------------


     EDDAV:  cpu time     47.2607: real time     47.5030
       DOS:  cpu time      0.0079: real time      0.0079
    --------------------------------------------
      LOOP:  cpu time     47.2686: real time     47.5109

 eigenvalue-minimisations  : 22776
 total energy-change (2. order) :-0.7739241E+04  (-0.7503051E+04)
 number of electron     817.0000000 magnetization 
 augmentation part      817.0000000 magnetization 

 Free energy of the ion-electron system (eV)
  ---------------------------------------------------
  alpha Z        PSCENC =      7432.14066061
  Ewald energy   TEWEN  =    -83293.77318686
  -Hartree energ DENC   =    -15567.87966938
  -exchange      EXHF   =         0.00000000
  -V(xc)+E(xc)   XCENC  =      3072.68739637
  PAW double counting   =     77124.72699124   -75929.33751088
  entropy T*S    EENTRO =        -0.00645544
  eigenvalues    EBANDS =    -10186.89726869
  atomic energy  EATOM  =     97295.42356983
  Solvation  Ediel_sol  =         0.00000000
  ---------------------------------------------------
  free energy    TOTEN  =       -52.91547319 eV

  energy without entropy =      -52.90901776  energy(sigma->0) =      -52.91224548


--------------------------------------------------------------------------------------------------------




--------------------------------------- Iteration      1(   3)  ---------------------------------------


     EDDAV:  cpu time     41.6851: real time     41.8824
       DOS:  cpu time      0.4736: real time      0.4758
    --------------------------------------------
      LOOP:  cpu time     42.1587: real time     42.3582

 eigenvalue-minimisations  : 33640
 total energy-change (2. order) :-0.6714237E+03  (-0.6294971E+03)
 number of electron     817.0000000 magnetization 
 augmentation part      817.0000000 magnetization 

 Free energy of the ion-electron system (eV)
  ---------------------------------------------------
  alpha Z        PSCENC =      7432.14066061
  Ewald energy   TEWEN  =    -83293.77318686
  -Hartree energ DENC   =    -15567.87966938
  -exchange      EXHF   =         0.00000000
  -V(xc)+E(xc)   XCENC  =      3072.68739637
  PAW double counting   =     77124.72699124   -75929.33751088
  entropy T*S    EENTRO =        -0.00586200
  eigenvalues    EBANDS =    -10858.32151361
  atomic energy  EATOM  =     97295.42356983
  Solvation  Ediel_sol  =         0.00000000
  ---------------------------------------------------
  free energy    TOTEN  =      -724.33912467 eV

  energy without entropy =     -724.33326267  energy(sigma->0) =     -724.33619367


--------------------------------------------------------------------------------------------------------




--------------------------------------- Iteration      1(   4)  ---------------------------------------


     EDDAV:  cpu time     46.3553: real time     46.5974
       DOS:  cpu time      0.3499: real time      0.3516
    --------------------------------------------
      LOOP:  cpu time     46.7052: real time     46.9490

 eigenvalue-minimisations  : 33696
 total energy-change (2. order) :-0.4741224E+02  (-0.4538614E+02)
 number of electron     817.0000000 magnetization 
 augmentation part      817.0000000 magnetization 

 Free energy of the ion-electron system (eV)
  ---------------------------------------------------
  alpha Z        PSCENC =      7432.14066061
  Ewald energy   TEWEN  =    -83293.77318686
  -Hartree energ DENC   =    -15567.87966938
  -exchange      EXHF   =         0.00000000
  -V(xc)+E(xc)   XCENC  =      3072.68739637
  PAW double counting   =     77124.72699124   -75929.33751088
  entropy T*S    EENTRO =        -0.00753939
  eigenvalues    EBANDS =    -10905.73207962
  atomic energy  EATOM  =     97295.42356983
  Solvation  Ediel_sol  =         0.00000000
  ---------------------------------------------------
  free energy    TOTEN  =      -771.75136807 eV

  energy without entropy =     -771.74382869  energy(sigma->0) =     -771.74759838


--------------------------------------------------------------------------------------------------------




--------------------------------------- Iteration      1(   5)  ---------------------------------------


     EDDAV:  cpu time     29.8962: real time     30.0443
       DOS:  cpu time      0.0076: real time      0.0076
    CHARGE:  cpu time      0.6322: real time      0.6348
    MIXING:  cpu time      0.0941: real time      0.0945
    --------------------------------------------
      LOOP:  cpu time     30.6301: real time     30.7812

 eigenvalue-minimisations  : 37288
 total energy-change (2. order) :-0.2928398E+01  (-0.2900386E+01)
 number of electron     816.9999630 magnetization 
 augmentation part      174.6870556 magnetization 

 Broyden mixing:
  rms(total) = 0.10733E+02    rms(broyden)= 0.10730E+02
  rms(prec ) = 0.11023E+02
  weight for this iteration     100.00

 Free energy of the ion-electron system (eV)
  ---------------------------------------------------
  alpha Z        PSCENC =      7432.14066061
  Ewald energy   TEWEN  =    -83293.77318686
  -Hartree energ DENC   =    -15567.87966938
  -exchange      EXHF   =         0.00000000
  -V(xc)+E(xc)   XCENC  =      3072.68739637
  PAW double counting   =     77124.72699124   -75929.33751088
  entropy T*S    EENTRO =        -0.00784154
  eigenvalues    EBANDS =    -10908.66017519
  atomic energy  EATOM  =     97295.42356983
  Solvation  Ediel_sol  =         0.00000000
  ---------------------------------------------------
  free energy    TOTEN  =      -774.67976579 eV

  energy without entropy =     -774.67192426  energy(sigma->0) =     -774.67584502


--------------------------------------------------------------------------------------------------------




--------------------------------------- Iteration      1(   6)  ---------------------------------------


    POTLOK:  cpu time      0.0283: real time      0.0288
    SETDIJ:  cpu time      0.2694: real time      0.2705
     EDDAV:  cpu time     26.3442: real time     26.4634
       DOS:  cpu time      0.0747: real time      0.0751
    CHARGE:  cpu time      0.5816: real time      0.5838
    MIXING:  cpu time      0.1838: real time      0.1848
    --------------------------------------------
      LOOP:  cpu time     27.4820: real time     27.6063

 eigenvalue-minimisations  : 27344
 total energy-change (2. order) : 0.2671067E+02  (-0.8744599E+01)
 number of electron     816.9999629 magnetization 
 augmentation part      181.5169302 magnetization 

 Broyden mixing:
  rms(total) = 0.41585E+01    rms(broyden)= 0.41578E+01
  rms(prec ) = 0.49627E+01
  weight for this iteration     100.00

 eigenvalues of (default mixing * dielectric matrix)
  average eigenvalue GAMMA=   1.4402
  1.4402

 Free energy of the ion-electron system (eV)
  ---------------------------------------------------
  alpha Z        PSCENC =      7432.14066061
  Ewald energy   TEWEN  =    -83293.77318686
  -Hartree energ DENC   =    -14686.55582456
  -exchange      EXHF   =         0.00000000
  -V(xc)+E(xc)   XCENC  =      3029.76754185
  PAW double counting   =     92057.09480435   -90974.00305837
  entropy T*S    EENTRO =        -0.01183926
  eigenvalues    EBANDS =    -11608.05176016
  atomic energy  EATOM  =     97295.42356983
  Solvation  Ediel_sol  =         0.00000000
  ---------------------------------------------------
  free energy    TOTEN  =      -747.96909257 eV

  energy without entropy =     -747.95725330  energy(sigma->0) =     -747.96317294


--------------------------------------------------------------------------------------------------------




--------------------------------------- Iteration      1(   7)  ---------------------------------------


    POTLOK:  cpu time      0.0510: real time      0.0517
    SETDIJ:  cpu time      0.0046: real time      0.0046
     EDDAV:  cpu time     23.4550: real time     23.5600
       DOS:  cpu time      0.0074: real time      0.0074
    CHARGE:  cpu time      0.4433: real time      0.4450
    MIXING:  cpu time      0.0005: real time      0.0005
    --------------------------------------------
      LOOP:  cpu time     23.9618: real time     24.0693

 eigenvalue-minimisations  : 32192
 total energy-change (2. order) :-0.3467012E+02  (-0.1238998E+02)
 number of electron     816.9999606 magnetization 
 augmentation part      180.8165029 magnetization 

 Broyden mixing:
  rms(total) = 0.35866E+01    rms(broyden)= 0.35839E+01
  rms(prec ) = 0.96998E+01
  weight for this iteration     100.00

 eigenvalues of (default mixing * dielectric matrix)
  average eigenvalue GAMMA=   1.0256
  1.6189  0.4322

 Free energy of the ion-electron system (eV)
  ---------------------------------------------------
  alpha Z        PSCENC =      7432.14066061
  Ewald energy   TEWEN  =    -83293.77318686
  -Hartree energ DENC   =    -14492.83312220
  -exchange      EXHF   =         0.00000000
  -V(xc)+E(xc)   XCENC  =      3016.70434473
  PAW double counting   =    101578.55527707  -100531.82121871
  entropy T*S    EENTRO =        -0.01136142
  eigenvalues    EBANDS =    -11787.02417691
  atomic energy  EATOM  =     97295.42356983
  Solvation  Ediel_sol  =         0.00000000
  ---------------------------------------------------
  free energy    TOTEN  =      -782.63921385 eV

  energy without entropy =     -782.62785243  energy(sigma->0) =     -782.63353314


--------------------------------------------------------------------------------------------------------




--------------------------------------- Iteration      1(   8)  ---------------------------------------


    POTLOK:  cpu time      0.0166: real time      0.0169
    SETDIJ:  cpu time      0.0041: real time      0.0041
     EDDAV:  cpu time     28.7825: real time     28.9151
       DOS:  cpu time      0.0072: real time      0.0072
    CHARGE:  cpu time      0.4543: real time      0.4560
    MIXING:  cpu time      0.0005: real time      0.0005
    --------------------------------------------
      LOOP:  cpu time     29.2653: real time     29.3999

 eigenvalue-minimisations  : 32080
 total energy-change (2. order) : 0.4377706E+02  (-0.8487781E+01)
 number of electron     816.9999620 magnetization 
 augmentation part      182.3814596 magnetization 

 Broyden mixing:
  rms(total) = 0.14573E+01    rms(broyden)= 0.14531E+01
  rms(prec ) = 0.23990E+01
  weight for this iteration     100.00

 eigenvalues of (default mixing * dielectric matrix)
  average eigenvalue GAMMA=   0.9019
  1.7558  0.6847  0.2652

 Free energy of the ion-electron system (eV)
  ---------------------------------------------------
  alpha Z        PSCENC =      7432.14066061
  Ewald energy   TEWEN  =    -83293.77318686
  -Hartree energ DENC   =    -14331.43861739
  -exchange      EXHF   =         0.00000000
  -V(xc)+E(xc)   XCENC  =      3010.26236491
  PAW double counting   =    105150.00883264  -104123.48239648
  entropy T*S    EENTRO =        -0.01138408
  eigenvalues    EBANDS =    -11877.99200016
  atomic energy  EATOM  =     97295.42356983
  Solvation  Ediel_sol  =         0.00000000
  ---------------------------------------------------
  free energy    TOTEN  =      -738.86215698 eV

  energy without entropy =     -738.85077290  energy(sigma->0) =     -738.85646494


--------------------------------------------------------------------------------------------------------




[...]
 -0.002   0.010  -0.007   0.010   0.005   0.003  -0.014  -0.001   3.338   0.010   0.006   0.025  -0.004  -1.405  -0.000  -0.003
  0.000   0.005  -0.003   0.003   0.009   0.017   0.003  -0.009   0.010   3.367   0.001  -0.007  -0.002  -0.001  -1.416   0.000
  0.001   0.011   0.000  -0.010  -0.001  -0.003   0.013   0.004   0.006   0.001   2.678  -0.003  -0.032  -0.003   0.000  -1.211
  0.001  -0.003   0.008  -0.006  -0.002  -0.007   0.001   0.016   0.025  -0.007  -0.003   3.315  -0.003  -0.012  -0.001   0.000
  0.000   0.028   0.002   0.000   0.002  -0.007  -0.000  -0.007  -0.004  -0.002  -0.032  -0.003   2.656   0.002   0.001   0.014
  0.002  -0.006   0.005  -0.006  -0.003  -0.003   0.007   0.001  -1.405  -0.001  -0.003  -0.012   0.002   0.602  -0.001   0.001
 -0.000  -0.003   0.002  -0.002  -0.006  -0.009   0.000   0.005  -0.000  -1.416   0.000  -0.001   0.001  -0.001   0.607  -0.001
 -0.001  -0.004  -0.000   0.007   0.001   0.001  -0.006  -0.001  -0.003   0.000  -1.211   0.000   0.014   0.001  -0.001   0.556
 -0.001   0.003  -0.005   0.004   0.001   0.004  -0.002  -0.008  -0.012  -0.001   0.000  -1.403   0.001   0.006   0.002   0.000
 -0.000  -0.012  -0.001  -0.000  -0.001   0.002   0.000   0.003   0.002   0.001   0.014   0.000  -1.202  -0.001  -0.000  -0.006


------------------------ aborting loop because EDIFF is reached ----------------------------------------


    CHARGE:  cpu time      0.6048: real time      0.6073
    FORLOC:  cpu time      0.0044: real time      0.0044
    FORNL :  cpu time     15.3816: real time     15.4616
    STRESS:  cpu time     11.4697: real time     11.5136
    FORCOR:  cpu time      0.0189: real time      0.0189
    FORHAR:  cpu time      0.0071: real time      0.0072
    MIXING:  cpu time      0.0013: real time      0.0013
    OFIELD:  cpu time      0.0000: real time      0.0000

  FORCE on cell =-STRESS in cart. coord.  units (eV):
  Direction    XX          YY          ZZ          XY          YZ          ZX
  --------------------------------------------------------------------------------------
  Alpha Z  7432.14066  7432.14066  7432.14066
  Ewald  -27800.57710-27827.00201-27666.62039    -6.53691   -58.34353    68.50616
  Hartree  4722.55010  4694.35623  4856.03137    -5.92803   -54.03864    64.88791
  E(xc)   -3728.58079 -3728.55817 -3728.58642     0.01922     0.08366    -0.12277
  Local    6421.40339  6476.95236  6150.50945    12.22515   109.75098  -130.56424
  n-local -1701.30205 -1701.46843 -1703.79818     1.15536     1.27879    -0.54174
  augment  2087.48879  2087.23531  2088.21226     0.11761     0.50564    -0.45352
  Kinetic 12476.40823 12475.69092 12483.28757    -1.32083    -0.10727    -0.70631
  Fock        0.00000     0.00000     0.00000     0.00000     0.00000     0.00000
  -------------------------------------------------------------------------------------
  Total     -90.46878   -90.65312   -88.82368    -0.26844    -0.87036     1.00549
  in kB    -127.19546  -127.45464  -124.88252    -0.37742    -1.22370     1.41368
  external pressure =     -126.51 kB  Pullay stress =        0.00 kB


 VOLUME and BASIS-vectors are now :
 -----------------------------------------------------------------------------
  energy-cutoff  :      250.00
  volume of cell :     1139.56
      direct lattice vectors                 reciprocal lattice vectors
    13.160000000  0.000000000  0.000000000     0.075987842  0.000000000  0.000000000
     0.000000000 13.160000000  0.000000000     0.000000000  0.075987842  0.000000000
     0.000000000  0.000000000  6.580000000     0.000000000  0.000000000  0.151975684

  length of vectors
    13.160000000 13.160000000  6.580000000     0.075987842  0.075987842  0.151975684


 FORCES acting on ions
    electron-ion (+dipol)            ewald-force                    non-local-force                 convergence-correction
 -----------------------------------------------------------------------------------------------
   0.809E+02 0.897E+01 -.713E+02   -.805E+02 -.951E+01 0.710E+02   0.129E-01 0.985E-01 -.187E+00   -.170E-04 -.904E-05 0.110E-04
   -.298E+02 0.574E+02 -.444E+02   0.295E+02 -.572E+02 0.441E+02   0.272E-01 -.273E-01 0.565E-01   -.670E-04 -.219E-05 0.208E-04
   0.739E+02 0.100E+02 -.763E+01   -.744E+02 -.102E+02 0.740E+01   0.334E+00 -.328E-01 0.999E-01   0.778E-04 -.228E-04 -.410E-04
   0.818E+02 0.944E+02 0.117E+02   -.810E+02 -.941E+02 -.115E+02   -.895E-01 0.733E-01 -.127E-01   0.389E-04 -.123E-04 -.152E-04
   -.803E+02 -.744E+00 -.347E+02   0.803E+02 0.164E+01 0.342E+02   -.338E-01 -.296E+00 0.302E-01   -.562E-04 0.703E-05 0.609E-05
   0.293E+02 0.535E+02 -.179E+01   -.296E+02 -.530E+02 0.178E+01   0.268E+00 0.740E-01 -.377E-02   0.623E-05 0.469E-04 -.289E-04
   0.998E+01 -.138E+03 0.115E+02   -.103E+02 0.137E+03 -.117E+02   0.145E+00 -.277E-03 0.260E-01   -.251E-04 -.453E-04 -.199E-04
   0.309E+02 0.556E+02 0.298E+02   -.311E+02 -.545E+02 -.295E+02   0.429E+00 -.334E+00 -.667E-02   -.306E-04 0.424E-04 -.964E-05
   -.958E+02 -.291E+01 0.443E+02   0.958E+02 0.306E+01 -.441E+02   -.194E+00 -.321E+00 0.107E+00   -.421E-04 -.236E-04 -.105E-04
   -.713E+02 -.123E+01 -.279E+02   0.713E+02 0.151E+01 0.277E+02   -.650E-01 -.231E+00 -.682E-01   -.263E-04 -.102E-04 -.125E-04
   -.346E+02 -.694E+02 0.785E+01   0.347E+02 0.694E+02 -.758E+01   0.297E-01 -.197E-01 -.179E+00   0.104E-04 0.865E-04 0.564E-05
   0.582E+02 0.286E+02 0.762E+01   -.586E+02 -.292E+02 -.740E+01   0.327E+00 0.264E+00 -.653E-01   0.690E-04 0.461E-05 0.383E-04
   0.285E+02 -.968E+02 -.253E+02   -.282E+02 0.970E+02 0.251E+02   -.143E-01 -.347E+00 0.437E-01   -.206E-04 -.466E-04 0.265E-04
   0.707E+02 0.118E+03 -.125E+02   -.698E+02 -.119E+03 0.124E+02   -.243E+00 0.503E+00 -.511E-01   0.517E-04 0.121E-04 0.128E-04
   -.345E+02 0.561E+02 0.477E+02   0.344E+02 -.558E+02 -.475E+02   -.186E-01 -.304E+00 -.298E-01   -.916E-04 0.190E-04 -.172E-04
   0.848E+02 0.178E+02 -.414E+02   -.848E+02 -.177E+02 0.413E+02   0.302E+00 0.680E-01 -.181E+00   0.694E-05 0.202E-05 -.187E-04
   -.350E+02 0.378E+01 0.211E+02   0.351E+02 -.423E+01 -.211E+02   -.112E+00 0.410E-01 -.726E-02   -.327E-04 -.358E-04 0.875E-06
   0.348E+02 0.959E+02 0.498E+02   -.347E+02 -.967E+02 -.496E+02   -.394E+00 0.534E+00 0.196E-01   0.250E-04 -.219E-04 0.780E-05
   0.353E+02 0.341E+02 0.476E+02   -.351E+02 -.340E+02 -.475E+02   0.630E-01 -.128E+00 0.831E-01   -.339E-05 0.789E-04 0.936E-05
   -.635E+02 0.292E+02 0.371E+02   0.636E+02 -.291E+02 -.369E+02   -.165E+00 -.358E-01 0.455E-01   -.347E-04 -.296E-04 0.347E-04
   -.127E+03 -.104E+03 0.376E+02   0.127E+03 0.104E+03 -.376E+02   -.622E-01 -.478E+00 0.689E-01   0.450E-05 0.140E-04 -.198E-04
   -.875E+02 0.440E+01 -.162E+02   0.868E+02 -.450E+01 0.161E+02   0.364E+00 -.108E-01 0.306E-01   -.344E-04 -.289E-04 -.195E-04
   0.846E+02 -.150E+03 0.201E+01   -.846E+02 0.150E+03 -.192E+01   -.954E-02 -.474E+00 -.693E-01   0.203E-04 -.930E-04 -.201E-04
   0.923E+02 0.358E+02 -.269E+02   -.922E+02 -.358E+02 0.270E+02   -.298E-03 0.184E+00 -.161E+00   0.854E-04 0.705E-04 0.686E-05
   0.488E+02 -.204E+02 0.310E+02   -.490E+02 0.206E+02 -.310E+02   -.236E-01 -.887E-01 0.148E+00   -.417E-04 -.557E-04 0.524E-04
   0.410E+02 0.503E+02 0.512E+02   -.411E+02 -.499E+02 -.512E+02   0.186E-01 0.117E+00 0.107E+00   0.190E-04 0.583E-04 0.269E-04
   -.683E+02 -.302E+02 -.125E+02   0.681E+02 0.302E+02 0.124E+02   0.325E-01 -.151E-02 -.313E-01   0.429E-04 0.689E-05 0.229E-04
   -.935E+02 0.721E+01 0.299E+02   0.941E+02 -.702E+01 -.299E+02   -.317E+00 0.839E-01 0.919E-01   -.234E-04 -.180E-04 0.123E-04
   0.378E+02 0.479E+01 -.476E+02   -.377E+02 -.456E+01 0.475E+02   0.158E-01 -.364E-01 -.609E-01   0.316E-04 0.672E-04 -.101E-04
   0.911E+02 -.749E+02 0.136E+02   -.913E+02 0.753E+02 -.135E+02   0.316E+00 -.421E+00 0.676E-01   0.280E-04 0.835E-06 0.286E-04
   -.143E+02 -.144E+02 -.167E+02   0.139E+02 0.139E+02 0.166E+02   0.223E+00 -.118E-01 0.237E-01   -.373E-04 -.855E-05 0.474E-05
   0.181E+02 0.658E+02 0.294E+02   -.188E+02 -.651E+02 -.290E+02   0.804E-01 -.797E-01 0.739E-02   0.579E-04 0.913E-05 -.922E-06
   0.311E+02 0.206E+02 0.329E+02   -.302E+02 -.207E+02 -.324E+02   -.229E+00 0.257E+00 0.121E+00   0.213E-04 0.467E-04 0.136E-04
   0.551E+02 0.190E+02 0.604E+02   -.546E+02 -.199E+02 -.600E+02   0.655E-01 0.243E+00 0.182E+00   -.239E-04 -.100E-04 -.195E-04
   -.366E+02 -.411E+02 0.100E+02   0.363E+02 0.409E+02 -.973E+01   0.128E+00 -.732E-02 -.892E-01   0.260E-04 0.255E-05 -.232E-04
   0.417E+02 -.562E+02 0.963E+01   -.414E+02 0.561E+02 -.942E+01   -.287E-01 -.166E+00 0.795E-02   0.736E-05 -.292E-04 0.103E-04
   -.981E+02 0.101E+02 0.126E+02   0.979E+02 -.103E+02 -.127E+02   -.246E+00 0.353E+00 0.531E-01   -.159E-04 -.314E-04 0.183E-04
   0.249E+02 0.360E+02 0.152E+01   -.241E+02 -.354E+02 -.150E+01   -.303E+00 0.225E+00 0.611E-01   -.326E-04 -.815E-05 0.395E-05
   0.638E+02 -.844E+02 0.162E+01   -.638E+02 0.842E+02 -.165E+01   0.114E+00 -.477E+00 0.923E-01   -.702E-05 0.197E-04 0.702E-05
   0.253E+02 -.705E+02 0.214E+02   -.250E+02 0.702E+02 -.212E+02   -.235E-01 -.393E-01 0.646E-01   -.210E-05 -.320E-04 -.230E-04
   -.776E+02 -.893E+01 0.134E+01   0.772E+02 0.857E+01 -.135E+01   -.248E+00 0.159E+00 0.395E-01   -.150E-04 -.584E-05 -.126E-04
   -.677E+02 0.191E+02 -.375E+02   0.677E+02 -.197E+02 0.373E+02   -.227E+00 0.314E+00 -.147E+00   -.104E-04 -.251E-04 0.161E-04
   0.573E+02 -.778E+02 -.167E+01   -.570E+02 0.774E+02 0.165E+01   -.321E+00 -.110E+00 -.306E-01   0.302E-05 0.474E-04 -.837E-05
   0.678E+02 0.330E+02 0.214E+02   -.673E+02 -.329E+02 -.212E+02   -.252E+00 0.285E+00 0.908E-01   0.619E-04 0.417E-04 -.683E-05
   0.316E+02 0.610E+02 -.294E+02   -.322E+02 -.603E+02 0.290E+02   -.426E-01 -.172E+00 -.331E-01   0.652E-04 0.238E-04 -.609E-07
   -.278E+02 -.417E+02 -.662E+01   0.280E+02 0.415E+02 0.642E+01   -.963E-02 0.591E-02 0.509E-01   0.141E-04 0.435E-04 -.767E-05
   -.711E+02 -.447E+02 -.131E+01   0.704E+02 0.450E+02 0.135E+01   0.304E+00 -.251E+00 -.629E-01   -.157E-04 0.216E-04 0.143E-04
   0.584E+02 -.232E+02 -.109E+02   -.582E+02 0.227E+02 0.106E+02   0.174E-01 0.103E+00 -.128E-01   0.266E-04 -.151E-04 -.205E-04
   -.961E+01 0.829E+02 -.252E+02   0.101E+02 -.826E+02 0.250E+02   -.148E+00 0.310E+00 0.984E-02   -.468E-05 -.214E-04 0.866E-05
   0.640E+02 0.265E+02 -.405E+02   -.645E+02 -.255E+02 0.402E+02   0.180E+00 -.140E+00 -.166E-01   0.197E-04 0.227E-04 -.156E-04
   -.704E+02 0.559E+02 -.214E+02   0.699E+02 -.559E+02 0.212E+02   0.277E+00 0.465E+00 -.313E-01   0.389E-05 -.625E-05 0.376E-04
   -.893E+02 0.324E+02 0.177E+02   0.888E+02 -.324E+02 -.172E+02   -.203E+00 0.286E-01 -.600E-02   -.402E-05 0.195E-05 -.101E-04
   0.123E+02 -.140E+03 -.125E+02   -.125E+02 0.139E+03 0.126E+02   -.339E-01 -.143E+00 0.903E-01   -.506E-05 -.194E-04 0.251E-04
   0.214E+02 0.628E+02 0.193E+01   -.215E+02 -.629E+02 -.192E+01   -.716E-01 0.482E+00 -.423E-05   0.133E-04 0.496E-04 0.298E-04
   0.415E+02 0.747E+02 -.188E+01   -.411E+02 -.745E+02 0.192E+01   0.168E+00 0.924E-01 -.288E-01   -.253E-04 -.914E-05 -.131E-04
   -.154E+03 0.632E+02 -.221E+02   0.154E+03 -.632E+02 0.219E+02   -.401E+00 -.560E-01 -.148E+00   -.284E-04 -.354E-04 0.678E-05
   -.121E+03 -.765E+02 -.376E+02   0.121E+03 0.758E+02 0.376E+02   -.414E+00 0.196E+00 -.279E-01   0.337E-04 0.165E-04 0.237E-04
   0.708E+02 -.376E+02 -.312E+02   -.709E+02 0.381E+02 0.310E+02   -.175E+00 -.201E+00 -.408E-01   -.575E-04 -.637E-04 -.551E-04
   0.719E+02 0.504E+02 -.498E+02   -.724E+02 -.503E+02 0.496E+02   0.290E+00 -.271E+00 -.206E-01   0.188E-04 -.546E-06 -.137E-05
   -.103E+03 0.849E+01 0.371E+02   0.104E+03 -.790E+01 -.369E+02   0.386E-01 -.313E+00 0.151E+00   -.548E-04 0.733E-05 -.794E-05
   0.777E+02 -.130E+03 -.195E+01   -.781E+02 0.130E+03 0.192E+01   0.405E+00 -.174E+00 0.158E-01   -.777E-05 -.608E-04 0.216E-04
   -.956E+02 0.806E+02 0.271E+02   0.955E+02 -.808E+02 -.270E+02   -.539E-01 0.271E+00 0.103E+00   -.327E-04 0.163E-05 -.427E-04
   -.465E+02 0.206E+02 -.371E+02   0.465E+02 -.206E+02 0.369E+02   -.393E-01 -.481E-01 -.901E-01   -.167E-04 -.441E-04 -.323E-04
   0.545E+02 -.544E+02 -.121E+02   -.544E+02 0.539E+02 0.120E+02   0.825E-01 0.163E+00 -.558E-01   0.517E-05 -.171E-04 -.179E-04
 -----------------------------------------------------------------------------------------------
   0.154E+00 0.255E+00 -.234E+00   0.441E-12 0.270E-12 -.512E-12   -.154E+00 -.255E+00 0.234E+00   -.478E-04 -.248E-04 0.348E-05
 
 
 POSITION                                       TOTAL-FORCE (eV/Angst)
 -----------------------------------------------------------------------------------
      8.22500      1.64500      1.64500         0.382019     -0.445812     -0.567593
      1.64500      4.93500      4.93500        -0.258641      0.179712     -0.231890
     11.51500      1.64500      4.93500        -0.173796     -0.204500     -0.121428
      0.00000      0.00000      0.00000         0.703680      0.380192      0.170136
      4.93500     11.51500      1.64500         0.041263      0.603552     -0.422114
      1.64500     11.51500      4.93500        -0.040930      0.638758     -0.012889
      1.64500      8.22500      1.64500        -0.157567     -0.893744     -0.126034
      6.58000      3.29000      0.00000         0.192032      0.795183      0.244549
      4.93500      1.64500      4.93500        -0.128500     -0.171026      0.300030
      3.29000      6.58000      3.29000        -0.010717      0.049956     -0.287282
      3.29000      9.87000      3.29000         0.172813     -0.106572      0.089298
     11.51500      1.64500      1.64500        -0.060039     -0.368976      0.153385
      8.22500      8.22500      4.93500         0.280147     -0.123904     -0.186371
      0.00000      0.00000      3.29000         0.590807      0.061384     -0.130788
      1.64500      4.93500      1.64500        -0.145008      0.069058      0.180498
      0.00000      3.29000      3.29000         0.322810      0.103332     -0.262930
      6.58000      0.00000      0.00000        -0.050447     -0.406041      0.019985
      9.87000      0.00000      0.00000        -0.208923     -0.249069      0.187597
      8.22500      4.93500      4.93500         0.235869     -0.049105      0.141809
      1.64500      1.64500      1.64500        -0.011592      0.082075      0.267549
      4.93500      8.22500      1.64500         0.027365     -0.403201      0.013750
      3.29000      0.00000      0.00000        -0.288074     -0.120267     -0.049693
     11.51500      8.22500      1.64500        -0.022768     -0.259473      0.027143
     11.51500      4.93500      1.64500         0.129433      0.195407     -0.097336
      0.00000      6.58000      0.00000        -0.179873      0.099577      0.144957
      9.87000      3.29000      0.00000        -0.046332      0.534029      0.173683
      6.58000      6.58000      3.29000        -0.165025     -0.048491     -0.133489
      3.29000      6.58000      0.00000         0.214466      0.268605      0.146597
      8.22500      4.93500      1.64500         0.156244      0.189894     -0.152962
      9.87000      6.58000      0.00000         0.113644     -0.076191      0.143767
      6.58000      0.00000      3.29000        -0.159417     -0.570608     -0.045574
     11.51500     11.51500      1.64500        -0.573311      0.658636      0.426117
      0.00000      3.29000      0.00000         0.661718      0.145361      0.577515
      8.22500      1.64500      4.93500         0.526829     -0.678673      0.559792
      6.58000      6.58000      0.00000        -0.132204     -0.219931      0.225808
      9.87000      9.87000      0.00000         0.215752     -0.352872      0.215984
      3.29000      0.00000      3.29000        -0.453123      0.083763      0.022306
      8.22500     11.51500      4.93500         0.502271      0.759020      0.073321
      0.00000      9.87000      0.00000         0.181616     -0.654486      0.056419
      8.22500      8.22500      1.64500         0.353983     -0.341135      0.240696
      6.58000      9.87000      0.00000        -0.654923     -0.194139      0.027813
      4.93500      1.64500      1.64500        -0.259762     -0.233469     -0.352101
      0.00000      9.87000      3.29000        -0.027840     -0.579465     -0.045228
     11.51500      4.93500      4.93500         0.256385      0.438311      0.260952
     11.51500     11.51500      4.93500        -0.594150      0.469309     -0.417519
      3.29000      9.87000      0.00000         0.219308     -0.168031     -0.156987
      6.58000      9.87000      3.29000        -0.412191      0.098634     -0.018327
      9.87000      6.58000      3.29000         0.274926     -0.362384     -0.302944
      6.58000      3.29000      3.29000         0.360528      0.681876     -0.263095
      9.87000      3.29000      3.29000        -0.371825      0.861178     -0.352061
      4.93500      4.93500      4.93500        -0.300091      0.455052     -0.240280
      3.29000      3.29000      0.00000        -0.664634     -0.004716      0.460788
      1.64500      8.22500      4.93500        -0.220898     -0.590119      0.113562
      1.64500     11.51500      1.64500        -0.148224      0.444956      0.016405
      8.22500     11.51500      1.64500         0.519131      0.316390      0.006430
      3.29000      3.29000      3.29000        -0.304271      0.000625     -0.359709
      4.93500      8.22500      4.93500        -0.046808     -0.488474     -0.018827
      0.00000      6.58000      3.29000        -0.203984      0.313086     -0.195841
      9.87000      0.00000      3.29000        -0.223866     -0.117732     -0.223328
      4.93500     11.51500      4.93500         0.117938      0.276866      0.374325
     11.51500      8.22500      4.93500         0.032549     -0.473088     -0.018341
      4.93500      4.93500      1.64500        -0.230979      0.068670      0.202170
      1.64500      1.64500      4.93500        -0.022963     -0.062574     -0.318711
      9.87000      9.87000      3.29000         0.168169     -0.304182     -0.153462
 -----------------------------------------------------------------------------------
    total drift:                               -0.000020      0.000164      0.000036


--------------------------------------------------------------------------------------------------------



  FREE ENERGIE OF THE ION-ELECTRON SYSTEM (eV)
  ---------------------------------------------------
  free  energy   TOTEN  =      -736.91968416 eV

  energy  without entropy=     -736.90839836  energy(sigma->0) =     -736.91404126
 


--------------------------------------------------------------------------------------------------------


    POTLOK:  cpu time      0.1370: real time      0.1483


--------------------------------------------------------------------------------------------------------


     LOOP+:  cpu time    877.1604: real time    881.6068
    4ORBIT:  cpu time      0.0000: real time      0.0000

 total amount of memory used by VASP MPI-rank0    90282. kBytes
=======================================================================

   base      :      30000. kBytes
   nonl-proj :      12216. kBytes
   fftplans  :       1504. kBytes
   grid      :       2835. kBytes
   one-center:         93. kBytes
   wavefun   :      43634. kBytes
 
  
  
 General timing and accounting informations for this job:
 ========================================================
  
                  Total CPU time used (sec):      961.701
                            User time (sec):      953.299
                          System time (sec):        8.402
                         Elapsed time (sec):      967.391
  
                   Maximum memory used (kb):      148216.
                   Average memory used (kb):          N/A
  
                          Minor page faults:        19438
                          Major page faults:            0
                 Voluntary context switches:          351
