 vasp.6.3.1 04May22 (build Jul 26 2022 04:02:40) complex                        
  
 executed on             LinuxIFC date 2023.11.30  21:50:12
 running on   48 total cores
 distrk:  each k-point on   48 cores,    1 groups
 distr:  one band on NCORE=  12 cores,    4 groups


--------------------------------------------------------------------------------------------------------


 INCAR:
   ISTART = 0
   NWRITE = 2
   PREC = Accurate
   ENCUT = 250
   GGA = PE
   NSW = 0
   ISIF = 2
   ISYM = 2
   NBLOCK = 1
   KBLOCK = 1
   IBRION = -1
   NELM = 80
   EDIFF = 1E-08
   EDIFFG = -0.01
   ALGO = Normal
   LDIAG = .TRUE.
   LREAL = .FALSE.
   ISMEAR = 0
   SIGMA = 0.02
   ICHARG = 2
   LPLANE = .TRUE.
   NPAR = 4
   LSCALU = .FALSE.
   NSIM = 4
   LWAVE = .FALSE.
   LCHARG = .FALSE.
   ICORELEVEL = 1

 POTCAR:    PAW_PBE Nb_sv 25May2007               
 POTCAR:    PAW_PBE Mo_sv 02Feb2006               
 POTCAR:    PAW_PBE Ta_pv 07Sep2000               
 POTCAR:    PAW_PBE W_sv 04Sep2015                
 POTCAR:    PAW_PBE Nb_sv 25May2007               
   SHA256 =  0e8fc07c9fcd1164cf2ade22d0399fd28f85e91cd773dfa6cf24839a48c95e24 Nb_sv/POTCAR          
   COPYR  = (c) Copyright 25May2007 Georg Kresse                                                    
   COPYR  = This file is part of the software VASP. Any use, copying, and all other rights are regul
   COPYR  = If you do not have a valid VASP license, you may not use, copy or distribute this file. 
   VRHFIN =Nb: 4p5s4d                                                                               
   LEXCH  = PE                                                                                      
   EATOM  =  1555.1913 eV,  114.3033 Ry                                                             
                                                                                                    
   TITEL  = PAW_PBE Nb_sv 25May2007                                                                 
   LULTRA =        F    use ultrasoft PP ?                                                          
   IUNSCR =        1    unscreen: 0-lin 1-nonlin 2-no                                               
   RPACOR =    1.800    partial core radius                                                         
   POMASS =   92.910; ZVAL   =   13.000    mass and valenz                                          
   RCORE  =    2.400    outmost cutoff radius                                                       
   RWIGS  =    2.400; RWIGS  =    1.270    wigner-seitz radius (au A)                               
   ENMAX  =  293.235; ENMIN  =  219.927 eV                                                          
   ICORE  =        3    local potential                                                             
   LCOR   =        T    correct aug charges                                                         
   LPAW   =        T    paw PP                                                                      
   EAUG   =  455.659                                                                                
   DEXC   =    0.000                                                                                
   RMAX   =    2.456    core radius for proj-oper                                                   
   RAUG   =    1.300    factor for augmentation sphere                                              
   RDEP   =    2.451    radius for radial grids                                                     
   RDEPT  =    1.956    core radius for aug-charge                                                  
                                                                                                    
   Atomic configuration                                                                             
   11 entries                                                                                       
     n  l   j            E        occ.                                                              
     1  0  0.50    -18805.2457   2.0000                                                             
     2  0  0.50     -2630.2869   2.0000                                                             
     2  1  1.50     -2348.4046   6.0000                                                             
     3  0  0.50      -438.8757   2.0000                                                             
     3  1  1.50      -346.7588   6.0000                                                             
     3  2  2.50      -196.2560  10.0000                                                             
     4  0  0.50       -58.3859   2.0000                                                             
     5  0  0.50        -3.9816   1.0000                                                             
     4  1  1.50       -34.5141   6.0000                                                             
     4  2  2.50        -3.0408   4.0000                                                             
     4  3  2.50        -1.3606   0.0000                                                             
   Description                                                                                      
     l       E           TYP  RCUT    TYP  RCUT                                                     
     0    -58.3859094     23  2.200                                                                 
     0     -3.9816262     23  2.200                                                                 
     1    -34.5140738     23  2.200                                                                 
     1     13.6058260     23  2.200                                                                 
     2     -3.0408010     23  2.200                                                                 
     2     -0.1283038     23  2.200                                                                 
     3     -1.3605826     23  2.400                                                                 
  local pseudopotential read in
  partial core-charges read in
  partial kinetic energy density read in
  atomic valenz-charges read in
  non local Contribution for L=           0  read in
    real space projection operators read in
  non local Contribution for L=           0  read in
    real space projection operators read in
  non local Contribution for L=           1  read in
    real space projection operators read in
  non local Contribution for L=           1  read in
    real space projection operators read in
  non local Contribution for L=           2  read in
    real space projection operators read in
  non local Contribution for L=           2  read in
    real space projection operators read in
    PAW grid and wavefunctions read in
 
   number of l-projection  operators is LMAX  =           6
   number of lm-projection operators is LMMAX =          18
 
 POTCAR:    PAW_PBE Mo_sv 02Feb2006               
   SHA256 =  2731df97e41766cc617548c5a8267718fdef1f509ac6bafa01e745abea2bdfaa Mo_sv/POTCAR          
   COPYR  = (c) Copyright 02Feb2006 Georg Kresse                                                    
   COPYR  = This file is part of the software VASP. Any use, copying, and all other rights are regul
   COPYR  = If you do not have a valid VASP license, you may not use, copy or distribute this file. 
   VRHFIN =Mo: 4p5s4d                                                                               
   LEXCH  = PE                                                                                      
   EATOM  =  1862.2866 eV,  136.8742 Ry                                                             
                                                                                                    
   TITEL  = PAW_PBE Mo_sv 02Feb2006                                                                 
   LULTRA =        F    use ultrasoft PP ?                                                          
   IUNSCR =        1    unscreen: 0-lin 1-nonlin 2-no                                               
   RPACOR =    2.200    partial core radius                                                         
   POMASS =   95.940; ZVAL   =   14.000    mass and valenz                                          
   RCORE  =    2.500    outmost cutoff radius                                                       
   RWIGS  =    2.750; RWIGS  =    1.455    wigner-seitz radius (au A)                               
   ENMAX  =  242.676; ENMIN  =  182.007 eV                                                          
   ICORE  =        3    local potential                                                             
   LCOR   =        T    correct aug charges                                                         
   LPAW   =        T    paw PP                                                                      
   EAUG   =  446.014                                                                                
   DEXC   =    0.000                                                                                
   RMAX   =    2.563    core radius for proj-oper                                                   
   RAUG   =    1.300    factor for augmentation sphere                                              
   RDEP   =    2.641    radius for radial grids                                                     
   RDEPT  =    2.031    core radius for aug-charge                                                  
                                                                                                    
   Atomic configuration                                                                             
   11 entries                                                                                       
     n  l   j            E        occ.                                                              
     1  0  0.50    -19819.0341   2.0000                                                             
     2  0  0.50     -2799.0127   2.0000                                                             
     2  1  1.50     -2502.0276   6.0000                                                             
     3  0  0.50      -476.4449   2.0000                                                             
     3  1  1.50      -379.1496   6.0000                                                             
     3  2  2.50      -220.9367  10.0000                                                             
     4  0  0.50       -64.3378   2.0000                                                             
     5  0  0.50        -4.0862   1.0000                                                             
     4  1  1.50       -38.4773   6.0000                                                             
     4  2  2.50        -3.7535   5.0000                                                             
     4  3  2.50        -1.3606   0.0000                                                             
   Description                                                                                      
     l       E           TYP  RCUT    TYP  RCUT                                                     
     0    -64.3377829     23  2.100                                                                 
     0     -4.0861640     23  2.400                                                                 
     1    -38.4772993     23  2.100                                                                 
     1     13.6058260     23  2.100                                                                 
     2     -3.7534941     23  2.400                                                                 
     2     -5.1140767     23  2.400                                                                 
     3     -4.0817478     23  2.500                                                                 
  local pseudopotential read in
  partial core-charges read in
  partial kinetic energy density read in
  atomic valenz-charges read in
  non local Contribution for L=           0  read in
    real space projection operators read in
  non local Contribution for L=           0  read in
    real space projection operators read in
  non local Contribution for L=           1  read in
    real space projection operators read in
  non local Contribution for L=           1  read in
    real space projection operators read in
  non local Contribution for L=           2  read in
    real space projection operators read in
  non local Contribution for L=           2  read in
    real space projection operators read in
    PAW grid and wavefunctions read in
 
   number of l-projection  operators is LMAX  =           6
   number of lm-projection operators is LMMAX =          18
 
 POTCAR:    PAW_PBE Ta_pv 07Sep2000               
   SHA256 =  00d0a14a36c127416459414afb8617d9754996fffa60a2465888e660b20a452f Ta_pv/POTCAR          
   COPYR  = (c) Copyright 07Sep2000 Georg Kresse                                                    
   COPYR  = This file is part of the software VASP. Any use, copying, and all other rights are regul
   COPYR  = If you do not have a valid VASP license, you may not use, copy or distribute this file. 
   VRHFIN =Ta:  5p6s5d                                                                              
   LEXCH  = PE                                                                                      
   EATOM  =  1047.1984 eV,   76.9669 Ry                                                             
                                                                                                    
   TITEL  = PAW_PBE Ta_pv 07Sep2000                                                                 
   LULTRA =        F    use ultrasoft PP ?                                                          
   IUNSCR =        1    unscreen: 0-lin 1-nonlin 2-no                                               
   RPACOR =    2.330    partial core radius                                                         
   POMASS =  180.948; ZVAL   =   11.000    mass and valenz                                          
   RCORE  =    2.500    outmost cutoff radius                                                       
   RWIGS  =    2.840; RWIGS  =    1.503    wigner-seitz radius (au A)                               
   ENMAX  =  223.667; ENMIN  =  167.750 eV                                                          
   RCLOC  =    2.205    cutoff for local pot                                                        
   LCOR   =        T    correct aug charges                                                         
   LPAW   =        T    paw PP                                                                      
   EAUG   =  377.421                                                                                
   DEXC   =    0.000                                                                                
   RMAX   =    2.551    core radius for proj-oper                                                   
   RAUG   =    1.300    factor for augmentation sphere                                              
   RDEP   =    2.526    radius for radial grids                                                     
   RDEPT  =    2.132    core radius for aug-charge                                                  
                                                                                                    
   Atomic configuration                                                                             
   15 entries                                                                                       
     n  l   j            E        occ.                                                              
     1  0  0.50    -67341.2801   2.0000                                                             
     2  0  0.50    -11566.9369   2.0000                                                             
     2  1  1.50    -10134.1175   6.0000                                                             
     3  0  0.50     -2648.5614   2.0000                                                             
     3  1  1.50     -2222.6006   6.0000                                                             
     3  2  2.50     -1726.3114  10.0000                                                             
     4  0  0.50      -538.6957   2.0000                                                             
     4  1  1.50      -399.0125   6.0000                                                             
     4  2  2.50      -220.3955  10.0000                                                             
     4  3  3.50       -23.0371  14.0000                                                             
     5  0  0.50       -71.2900   2.0000                                                             
     5  1  1.50       -37.8224   6.0000                                                             
     5  2  2.50        -2.6455   4.0000                                                             
     6  0  0.50        -4.9623   1.0000                                                             
     5  3  2.50        -1.3606   0.0000                                                             
   Description                                                                                      
     l       E           TYP  RCUT    TYP  RCUT                                                     
     1    -37.8224449     23  2.500                                                                 
     1      1.3605826     23  2.500                                                                 
     2     -2.6454718     23  2.500                                                                 
     2     -0.6258570     23  2.500                                                                 
     0     -4.9622674     23  2.500                                                                 
     0      4.7531427     23  2.500                                                                 
  local pseudopotential read in
  partial core-charges read in
  partial kinetic energy density read in
  atomic valenz-charges read in
  non local Contribution for L=           1  read in
    real space projection operators read in
  non local Contribution for L=           1  read in
    real space projection operators read in
  non local Contribution for L=           2  read in
    real space projection operators read in
  non local Contribution for L=           2  read in
    real space projection operators read in
  non local Contribution for L=           0  read in
    real space projection operators read in
  non local Contribution for L=           0  read in
    real space projection operators read in
    PAW grid and wavefunctions read in
 
   number of l-projection  operators is LMAX  =           6
   number of lm-projection operators is LMMAX =          18
 
 POTCAR:    PAW_PBE W_sv 04Sep2015                
   SHA256 =  931c2d770f65867ef30f3db3421922900fc0890ebac5c3e12f63b6a2064023d7 W_sv/POTCAR           
   COPYR  = (c) Copyright 04Sep2015 Georg Kresse                                                    
   COPYR  = This file is part of the software VASP. Any use, copying, and all other rights are regul
   COPYR  = If you do not have a valid VASP license, you may not use, copy or distribute this file. 
   VRHFIN =W : 5p6s5d                                                                               
   LEXCH  = PE                                                                                      
   EATOM  =  1865.5791 eV,  137.1162 Ry                                                             
                                                                                                    
   TITEL  = PAW_PBE W_sv 04Sep2015                                                                  
   LULTRA =        F    use ultrasoft PP ?                                                          
   IUNSCR =        1    unscreen: 0-lin 1-nonlin 2-no                                               
   RPACOR =    2.330    partial core radius                                                         
   POMASS =  183.850; ZVAL   =   14.000    mass and valenz                                          
   RCORE  =    2.500    outmost cutoff radius                                                       
   RWIGS  =    2.750; RWIGS  =    1.455    wigner-seitz radius (au A)                               
   ENMAX  =  223.057; ENMIN  =  167.293 eV                                                          
   ICORE  =        3    local potential                                                             
   LCOR   =        T    correct aug charges                                                         
   LPAW   =        T    paw PP                                                                      
   EAUG   =  373.438                                                                                
   DEXC   =    0.000                                                                                
   RMAX   =    2.565    core radius for proj-oper                                                   
   RAUG   =    1.300    factor for augmentation sphere                                              
   RDEP   =    2.539    radius for radial grids                                                     
   RDEPT  =    2.126    core radius for aug-charge                                                  
                                                                                                    
   Atomic configuration                                                                             
   15 entries                                                                                       
     n  l   j            E        occ.                                                              
     1  0  0.50    -69465.5834   2.0000                                                             
     2  0  0.50    -11986.2640   2.0000                                                             
     2  1  1.50    -10479.8613   6.0000                                                             
     3  0  0.50     -2759.0756   2.0000                                                             
     3  1  1.50     -2313.1855   6.0000                                                             
     3  2  2.50     -1801.1183  10.0000                                                             
     4  0  0.50      -567.6789   2.0000                                                             
     4  1  1.50      -421.4692   6.0000                                                             
     4  2  2.50      -236.3471  10.0000                                                             
     4  3  3.50       -31.2665  14.0000                                                             
     5  0  0.50       -77.1084   2.0000                                                             
     6  0  0.50        -5.1438   1.0000                                                             
     5  1  1.50       -41.3856   6.0000                                                             
     5  2  2.50        -3.3185   5.0000                                                             
     5  3  2.50        -1.3606   0.0000                                                             
   Description                                                                                      
     l       E           TYP  RCUT    TYP  RCUT                                                     
     0    -77.1084470     23  2.100                                                                 
     0     -5.1437956     23  2.300                                                                 
     1    -41.3855615     23  2.500                                                                 
     1     -2.7211652     23  2.500                                                                 
     2     -3.3185025     23  2.500                                                                 
     2     -1.5965151     23  2.500                                                                 
     3     -1.3605826     23  2.500                                                                 
  local pseudopotential read in
  partial core-charges read in
  partial kinetic energy density read in
  kinetic energy density of atom read in
  atomic valenz-charges read in
  non local Contribution for L=           0  read in
    real space projection operators read in
  non local Contribution for L=           0  read in
    real space projection operators read in
  non local Contribution for L=           1  read in
    real space projection operators read in
  non local Contribution for L=           1  read in
    real space projection operators read in
  non local Contribution for L=           2  read in
    real space projection operators read in
  non local Contribution for L=           2  read in
    real space projection operators read in
    PAW grid and wavefunctions read in
 
   number of l-projection  operators is LMAX  =           6
   number of lm-projection operators is LMMAX =          18
 
 -----------------------------------------------------------------------------
|                                                                             |
|               ----> ADVICE to this user running VASP <----                  |
|                                                                             |
|     You have a (more or less) 'large supercell' and for larger cells it     |
|     might be more efficient to use real-space projection operators.         |
|     Therefore, try LREAL= Auto in the INCAR file.                           |
|     Mind: For very accurate calculation, you might also keep the            |
|     reciprocal projection scheme (i.e. LREAL=.FALSE.).                      |
|                                                                             |
 -----------------------------------------------------------------------------

  PAW_PBE Nb_sv 25May2007               :
 energy of atom  1       EATOM=-1555.1913
 kinetic energy error for atom=    0.2155 (will be added to EATOM!!)
  PAW_PBE Mo_sv 02Feb2006               :
 energy of atom  2       EATOM=-1862.2866
 kinetic energy error for atom=    0.1102 (will be added to EATOM!!)
  PAW_PBE Ta_pv 07Sep2000               :
 energy of atom  3       EATOM=-1047.1984
 kinetic energy error for atom=    0.0394 (will be added to EATOM!!)
  PAW_PBE W_sv 04Sep2015                :
 energy of atom  4       EATOM=-1865.5791
 kinetic energy error for atom=    0.0589 (will be added to EATOM!!)
 
 
 POSCAR: Nb-Mo-Ta-W alloy
  positions in direct lattice
  No initial velocities read in
 exchange correlation table for  LEXCH =        8
   RHO(1)=    0.500       N(1)  =     2000
   RHO(2)=  100.500       N(2)  =     4000
 


--------------------------------------------------------------------------------------------------------


 ion  position               nearest neighbor table
   1  0.250  0.500  0.500-  12 2.85  16 2.85  23 2.85  37 2.85  41 2.85  42 2.85  51 2.85  60 2.85

   2  0.750  0.500  0.500-  33 2.85  36 2.85  38 2.85  43 2.85  44 2.85  46 2.85  48 2.85  55 2.85
                            50 3.29
   3  0.500  0.250  0.000-  10 2.85  16 2.85  22 2.85  23 2.85  43 2.85  44 2.85  56 2.85  57 2.85
                            47 3.29
   4  0.375  0.875  0.250-   9 2.85  17 2.85  19 2.85  27 2.85  39 2.85  45 2.85  54 2.85  58 2.85
                            49 3.29
   5  0.875  0.875  0.250-  13 2.85  14 2.85  20 2.85  21 2.85  25 2.85  40 2.85  59 2.85  61 2.85
                            48 3.29  49 3.29
   6  0.250  0.500  0.000-  12 2.85  16 2.85  23 2.85  37 2.85  41 2.85  42 2.85  51 2.85  60 2.85

   7  0.875  0.875  0.750-  13 2.85  14 2.85  20 2.85  21 2.85  25 2.85  40 2.85  59 2.85  61 2.85
                            46 3.29
   8  0.000  0.250  0.500-  15 2.85  24 2.85  35 2.85  36 2.85  38 2.85  41 2.85  51 2.85  62 2.85
                            50 3.29
   9  0.250  0.000  0.500-   4 2.85  10 2.85  24 2.85  28 2.85  32 2.85  53 2.85  56 2.85  62 2.85

  10  0.375  0.125  0.250-   3 2.85   9 2.85  17 2.85  19 2.85  26 2.85  31 2.85  39 2.85  64 2.85

  11  0.000  0.500  0.000-  12 2.85  36 2.85  38 2.85  41 2.85  42 2.85  46 2.85  48 2.85  51 2.85

  12  0.125  0.625  0.250-   1 2.85   6 2.85  11 2.85  20 2.85  27 2.85  29 2.85  40 2.85  58 2.85
                            48 3.29  51 3.29  42 3.29  42 3.29
  13  0.000  0.000  0.500-   5 2.85   7 2.85  15 2.85  24 2.85  28 2.85  32 2.85  35 2.85  62 2.85

  14  0.750  0.000  0.500-   5 2.85   7 2.85  15 2.85  22 2.85  35 2.85  49 2.85  57 2.85  63 2.85
                            50 3.29
  15  0.875  0.125  0.250-   8 2.85  13 2.85  14 2.85  25 2.85  47 2.85  50 2.85  52 2.85  59 2.85

  16  0.375  0.375  0.750-   1 2.85   3 2.85   6 2.85  26 2.85  30 2.85  31 2.85  34 2.85  64 2.85
                            44 3.29  41 3.29
  17  0.500  0.000  0.500-   4 2.85  10 2.85  22 2.85  49 2.85  53 2.85  56 2.85  57 2.85  63 2.85
                            45 3.29
  18  0.750  0.500  0.000-  33 2.85  36 2.85  38 2.85  43 2.85  44 2.85  46 2.85  48 2.85  55 2.85
                            47 3.29
  19  0.250  0.000  0.000-   4 2.85  10 2.85  24 2.85  28 2.85  32 2.85  53 2.85  56 2.85  62 2.85
                            39 3.29  58 3.29  59 3.29  31 3.29
  20  0.000  0.750  0.000-   5 2.85   7 2.85  12 2.85  28 2.85  32 2.85  42 2.85  46 2.85  48 2.85
                            40 3.29  58 3.29  59 3.29  61 3.29  40 3.29
  21  0.750  0.750  0.500-   5 2.85   7 2.85  33 2.85  46 2.85  48 2.85  49 2.85  55 2.85  63 2.85
                            45 3.29  61 3.29  40 3.29  61 3.29
  22  0.625  0.125  0.750-   3 2.85  14 2.85  17 2.85  25 2.85  26 2.85  39 2.85  47 2.85  50 2.85
                            35 3.29  44 3.29  56 3.29  57 3.29  63 3.29  57 3.29
  23  0.375  0.375  0.250-   1 2.85   3 2.85   6 2.85  26 2.85  30 2.85  31 2.85  34 2.85  64 2.85
                            51 3.29  60 3.29  43 3.29
  24  0.125  0.125  0.750-   8 2.85   9 2.85  13 2.85  19 2.85  31 2.85  52 2.85  59 2.85  64 2.85
                            32 3.29  56 3.29  35 3.29  62 3.29  41 3.29  62 3.29
  25  0.750  0.000  0.000-   5 2.85   7 2.85  15 2.85  22 2.85  35 2.85  49 2.85  57 2.85  63 2.85
                            47 3.29  59 3.29  61 3.29  39 3.29
  26  0.500  0.250  0.500-  10 2.85  16 2.85  22 2.85  23 2.85  43 2.85  44 2.85  56 2.85  57 2.85
                            30 3.29  50 3.29  64 3.29
  27  0.250  0.750  0.500-   4 2.85  12 2.85  28 2.85  32 2.85  37 2.85  42 2.85  53 2.85  60 2.85
                            40 3.29  58 3.29  45 3.29  58 3.29
  28  0.125  0.875  0.250-   9 2.85  13 2.85  19 2.85  20 2.85  27 2.85  40 2.85  58 2.85  59 2.85
                            32 3.29  62 3.29  32 3.29
  29  0.000  0.500  0.500-  12 2.85  36 2.85  38 2.85  41 2.85  42 2.85  46 2.85  48 2.85  51 2.85
                            40 3.29
  30  0.500  0.500  0.500-  16 2.85  23 2.85  33 2.85  37 2.85  43 2.85  44 2.85  55 2.85  60 2.85
                            45 3.29  34 3.29  26 3.29  34 3.29
  31  0.250  0.250  0.000-  10 2.85  16 2.85  23 2.85  24 2.85  41 2.85  51 2.85  56 2.85  62 2.85
                            19 3.29  52 3.29  64 3.29  64 3.29
  32  0.125  0.875  0.750-   9 2.85  13 2.85  19 2.85  20 2.85  27 2.85  40 2.85  58 2.85  59 2.85
                            42 3.29  53 3.29  28 3.29  24 3.29  28 3.29
  33  0.625  0.625  0.250-   2 2.85  18 2.85  21 2.85  30 2.85  34 2.85  45 2.85  54 2.85  61 2.85
                            49 3.29  43 3.29  55 3.29  60 3.29  48 3.29  55 3.29
  34  0.500  0.500  0.000-  16 2.85  23 2.85  33 2.85  37 2.85  43 2.85  44 2.85  55 2.85  60 2.85
                            30 3.29  54 3.29  30 3.29
  35  0.875  0.125  0.750-   8 2.85  13 2.85  14 2.85  25 2.85  47 2.85  50 2.85  52 2.85  59 2.85
                            22 3.29  36 3.29  24 3.29
  36  0.875  0.375  0.750-   2 2.85   8 2.85  11 2.85  18 2.85  29 2.85  47 2.85  50 2.85  52 2.85
                            44 3.29  46 3.29  35 3.29  38 3.29  41 3.29  38 3.29
  37  0.375  0.625  0.750-   1 2.85   6 2.85  27 2.85  30 2.85  34 2.85  45 2.85  54 2.85  58 2.85
                            42 3.29  55 3.29  53 3.29  60 3.29  60 3.29
  38  0.875  0.375  0.250-   2 2.85   8 2.85  11 2.85  18 2.85  29 2.85  47 2.85  50 2.85  52 2.85
                            48 3.29  43 3.29  51 3.29  36 3.29  36 3.29
  39  0.500  0.000  0.000-   4 2.85  10 2.85  22 2.85  49 2.85  53 2.85  56 2.85  57 2.85  63 2.85
                            19 3.29  25 3.29  54 3.29
  40  0.000  0.750  0.500-   5 2.85   7 2.85  12 2.85  28 2.85  32 2.85  42 2.85  46 2.85  48 2.85
                            21 3.29  27 3.29  20 3.29  29 3.29  20 3.29
  41  0.125  0.375  0.750-   1 2.85   6 2.85   8 2.85  11 2.85  29 2.85  31 2.85  52 2.85  64 2.85
                            36 3.29  42 3.29  51 3.29  16 3.29  24 3.29  51 3.29
  42  0.125  0.625  0.750-   1 2.85   6 2.85  11 2.85  20 2.85  27 2.85  29 2.85  40 2.85  58 2.85
                            37 3.29  12 3.29  41 3.29  46 3.29  32 3.29  12 3.29
  43  0.625  0.375  0.250-   2 2.85   3 2.85  18 2.85  26 2.85  30 2.85  34 2.85  47 2.85  50 2.85
                            38 3.29  44 3.29  33 3.29  23 3.29  57 3.29  44 3.29
  44  0.625  0.375  0.750-   2 2.85   3 2.85  18 2.85  26 2.85  30 2.85  34 2.85  47 2.85  50 2.85
                            36 3.29  43 3.29  22 3.29  16 3.29  55 3.29  43 3.29
  45  0.500  0.750  0.500-   4 2.85  33 2.85  37 2.85  49 2.85  53 2.85  55 2.85  60 2.85  63 2.85
                            30 3.29  54 3.29  17 3.29  21 3.29  27 3.29  54 3.29
  46  0.875  0.625  0.750-   2 2.85  11 2.85  18 2.85  20 2.85  21 2.85  29 2.85  40 2.85  61 2.85
                             7 3.29  42 3.29  48 3.29  55 3.29  36 3.29  48 3.29
  47  0.750  0.250  0.000-  15 2.85  22 2.85  35 2.85  36 2.85  38 2.85  43 2.85  44 2.85  57 2.85
                            18 3.29   3 3.29  50 3.29  52 3.29  25 3.29  50 3.29
  48  0.875  0.625  0.250-   2 2.85  11 2.85  18 2.85  20 2.85  21 2.85  29 2.85  40 2.85  61 2.85
                            33 3.29  38 3.29   5 3.29  46 3.29  12 3.29  46 3.29
  49  0.625  0.875  0.250-  14 2.85  17 2.85  21 2.85  25 2.85  39 2.85  45 2.85  54 2.85  61 2.85
                             5 3.29  33 3.29  57 3.29   4 3.29  63 3.29  63 3.29
  50  0.750  0.250  0.500-  15 2.85  22 2.85  35 2.85  36 2.85  38 2.85  43 2.85  44 2.85  57 2.85
                             8 3.29  26 3.29  14 3.29  47 3.29   2 3.29  47 3.29
  51  0.125  0.375  0.250-   1 2.85   6 2.85   8 2.85  11 2.85  29 2.85  31 2.85  52 2.85  64 2.85
                            38 3.29  41 3.29  12 3.29  62 3.29  23 3.29  41 3.29
  52  0.000  0.250  0.000-  15 2.85  24 2.85  35 2.85  36 2.85  38 2.85  41 2.85  51 2.85  62 2.85
                            31 3.29  59 3.29  47 3.29
  53  0.375  0.875  0.750-   9 2.85  17 2.85  19 2.85  27 2.85  39 2.85  45 2.85  54 2.85  58 2.85
                            32 3.29  56 3.29  37 3.29  63 3.29
  54  0.500  0.750  0.000-   4 2.85  33 2.85  37 2.85  49 2.85  53 2.85  55 2.85  60 2.85  63 2.85
                            45 3.29  58 3.29  34 3.29  61 3.29  39 3.29  45 3.29
  55  0.625  0.625  0.750-   2 2.85  18 2.85  21 2.85  30 2.85  34 2.85  45 2.85  54 2.85  61 2.85
                            33 3.29  46 3.29  37 3.29  44 3.29  63 3.29  33 3.29
  56  0.375  0.125  0.750-   3 2.85   9 2.85  17 2.85  19 2.85  26 2.85  31 2.85  39 2.85  64 2.85
                            22 3.29  53 3.29  24 3.29
  57  0.625  0.125  0.250-   3 2.85  14 2.85  17 2.85  25 2.85  26 2.85  39 2.85  47 2.85  50 2.85
                            22 3.29  49 3.29  43 3.29  22 3.29
  58  0.250  0.750  0.000-   4 2.85  12 2.85  28 2.85  32 2.85  37 2.85  42 2.85  53 2.85  60 2.85
                            19 3.29  20 3.29  54 3.29  27 3.29  27 3.29
  59  0.000  0.000  0.000-   5 2.85   7 2.85  15 2.85  24 2.85  28 2.85  32 2.85  35 2.85  62 2.85
                            19 3.29  25 3.29  52 3.29  20 3.29
  60  0.375  0.625  0.250-   1 2.85   6 2.85  27 2.85  30 2.85  34 2.85  45 2.85  54 2.85  58 2.85
                            33 3.29  23 3.29  37 3.29  37 3.29
  61  0.750  0.750  0.000-   5 2.85   7 2.85  33 2.85  46 2.85  48 2.85  49 2.85  55 2.85  63 2.85
                            20 3.29  54 3.29  21 3.29  25 3.29  21 3.29
  62  0.125  0.125  0.250-   8 2.85   9 2.85  13 2.85  19 2.85  31 2.85  52 2.85  59 2.85  64 2.85
                            28 3.29  24 3.29  51 3.29  24 3.29
  63  0.625  0.875  0.750-  14 2.85  17 2.85  21 2.85  25 2.85  39 2.85  45 2.85  54 2.85  61 2.85
                            53 3.29  22 3.29  55 3.29  49 3.29  49 3.29
  64  0.250  0.250  0.500-  10 2.85  16 2.85  23 2.85  24 2.85  41 2.85  51 2.85  56 2.85  62 2.85
                            26 3.29  31 3.29  31 3.29
 
  LATTYP: Found a simple tetragonal cell.
 ALAT       =    13.1600000000
 C/A-ratio  =     0.5000000000
  
  Lattice vectors:
  
 A1 = (  13.1600000000,   0.0000000000,   0.0000000000)
 A2 = (   0.0000000000,  13.1600000000,   0.0000000000)
 A3 = (   0.0000000000,   0.0000000000,   6.5800000000)


Analysis of symmetry for initial positions (statically):
=====================================================================
 Subroutine PRICEL returns:
 Original cell was already a primitive cell.
 

 Routine SETGRP: Setting up the symmetry group for a 
 simple tetragonal supercell.


 Subroutine GETGRP returns: Found  1 space group operations
 (whereof  1 operations were pure point group operations)
 out of a pool of 16 trial point group operations.


The static configuration has the point symmetry C_1 .


Analysis of symmetry for dynamics (positions and initial velocities):
=====================================================================
 Subroutine PRICEL returns:
 Original cell was already a primitive cell.
 

 Routine SETGRP: Setting up the symmetry group for a 
 simple tetragonal supercell.


 Subroutine GETGRP returns: Found  1 space group operations
 (whereof  1 operations were pure point group operations)
 out of a pool of 16 trial point group operations.


The dynamic configuration has the point symmetry C_1 .


 Subroutine INISYM returns: Found  1 space group operations
 (whereof  1 operations are pure point group operations),
 and found     1 'primitive' translations


----------------------------------------------------------------------------------------

                                     Primitive cell                                     

  volume of cell :    1139.5612

  direct lattice vectors                    reciprocal lattice vectors
    13.160000000  0.000000000  0.000000000     0.075987842  0.000000000  0.000000000
     0.000000000 13.160000000  0.000000000     0.000000000  0.075987842  0.000000000
     0.000000000  0.000000000  6.580000000     0.000000000  0.000000000  0.151975684

  length of vectors
    13.160000000 13.160000000  6.580000000     0.075987842  0.075987842  0.151975684

  position of ions in fractional coordinates (direct lattice)
     0.250000000  0.500000000  0.500000000
     0.750000000  0.500000000  0.500000000
     0.500000000  0.250000000  0.000000000
     0.375000000  0.875000000  0.250000000
     0.875000000  0.875000000  0.250000000
     0.250000000  0.500000000  0.000000000
     0.875000000  0.875000000  0.750000000
     0.000000000  0.250000000  0.500000000
     0.250000000  0.000000000  0.500000000
     0.375000000  0.125000000  0.250000000
     0.000000000  0.500000000  0.000000000
     0.125000000  0.625000000  0.250000000
     0.000000000  0.000000000  0.500000000
     0.750000000  0.000000000  0.500000000
     0.875000000  0.125000000  0.250000000
     0.375000000  0.375000000  0.750000000
     0.500000000  0.000000000  0.500000000
     0.750000000  0.500000000  0.000000000
     0.250000000  0.000000000  0.000000000
     0.000000000  0.750000000  0.000000000
     0.750000000  0.750000000  0.500000000
     0.625000000  0.125000000  0.750000000
     0.375000000  0.375000000  0.250000000
     0.125000000  0.125000000  0.750000000
     0.750000000  0.000000000  0.000000000
     0.500000000  0.250000000  0.500000000
     0.250000000  0.750000000  0.500000000
     0.125000000  0.875000000  0.250000000
     0.000000000  0.500000000  0.500000000
     0.500000000  0.500000000  0.500000000
     0.250000000  0.250000000  0.000000000
     0.125000000  0.875000000  0.750000000
     0.625000000  0.625000000  0.250000000
     0.500000000  0.500000000  0.000000000
     0.875000000  0.125000000  0.750000000
     0.875000000  0.375000000  0.750000000
     0.375000000  0.625000000  0.750000000
     0.875000000  0.375000000  0.250000000
     0.500000000  0.000000000  0.000000000
     0.000000000  0.750000000  0.500000000
     0.125000000  0.375000000  0.750000000
     0.125000000  0.625000000  0.750000000
     0.625000000  0.375000000  0.250000000
     0.625000000  0.375000000  0.750000000
     0.500000000  0.750000000  0.500000000
     0.875000000  0.625000000  0.750000000
     0.750000000  0.250000000  0.000000000
     0.875000000  0.625000000  0.250000000
     0.625000000  0.875000000  0.250000000
     0.750000000  0.250000000  0.500000000
     0.125000000  0.375000000  0.250000000
     0.000000000  0.250000000  0.000000000
     0.375000000  0.875000000  0.750000000
     0.500000000  0.750000000  0.000000000
     0.625000000  0.625000000  0.750000000
     0.375000000  0.125000000  0.750000000
     0.625000000  0.125000000  0.250000000
     0.250000000  0.750000000  0.000000000
     0.000000000  0.000000000  0.000000000
     0.375000000  0.625000000  0.250000000
     0.750000000  0.750000000  0.000000000
     0.125000000  0.125000000  0.250000000
     0.625000000  0.875000000  0.750000000
     0.250000000  0.250000000  0.500000000

  ion indices of the primitive-cell ions
   primitive index   ion index
                 1           1
                 2           2
                 3           3
                 4           4
                 5           5
                 6           6
                 7           7
                 8           8
                 9           9
                10          10
                11          11
                12          12
                13          13
                14          14
                15          15
                16          16
                17          17
                18          18
                19          19
                20          20
                21          21
                22          22
                23          23
                24          24
                25          25
                26          26
                27          27
                28          28
                29          29
                30          30
                31          31
                32          32
                33          33
                34          34
                35          35
                36          36
                37          37
                38          38
                39          39
                40          40
                41          41
                42          42
                43          43
                44          44
                45          45
                46          46
                47          47
                48          48
                49          49
                50          50
                51          51
                52          52
                53          53
                54          54
                55          55
                56          56
                57          57
                58          58
                59          59
                60          60
                61          61
                62          62
                63          63
                64          64

----------------------------------------------------------------------------------------

 
 
 KPOINTS: K-Spacing Value to Generate K-Mesh: 0.03

Automatic generation of k-mesh.
 Grid dimensions read from file:
 generate k-points for:    3    3    5

 Generating k-lattice:

  Cartesian coordinates                     Fractional coordinates (reciprocal lattice)
     0.025329281  0.000000000  0.000000000     0.333333333  0.000000000  0.000000000
     0.000000000  0.025329281  0.000000000     0.000000000  0.333333333  0.000000000
     0.000000000  0.000000000  0.030395137     0.000000000  0.000000000  0.200000000

  Length of vectors
     0.025329281  0.025329281  0.030395137

  Shift w.r.t. Gamma in fractional coordinates (k-lattice)
     0.000000000  0.000000000  0.000000000

 
 Subroutine IBZKPT returns following result:
 ===========================================
 
 Found     23 irreducible k-points:
 
 Following reciprocal coordinates:
            Coordinates               Weight
  0.000000  0.000000  0.000000      1.000000
  0.333333  0.000000  0.000000      2.000000
  0.000000  0.333333  0.000000      2.000000
  0.333333  0.333333  0.000000      2.000000
 -0.333333  0.333333  0.000000      2.000000
  0.000000  0.000000  0.200000      2.000000
  0.333333  0.000000  0.200000      2.000000
  0.000000  0.333333  0.200000      2.000000
 -0.333333  0.000000  0.200000      2.000000
  0.000000 -0.333333  0.200000      2.000000
  0.333333  0.333333  0.200000      2.000000
 -0.333333  0.333333  0.200000      2.000000
 -0.333333 -0.333333  0.200000      2.000000
  0.333333 -0.333333  0.200000      2.000000
  0.000000  0.000000  0.400000      2.000000
  0.333333  0.000000  0.400000      2.000000
  0.000000  0.333333  0.400000      2.000000
 -0.333333  0.000000  0.400000      2.000000
  0.000000 -0.333333  0.400000      2.000000
  0.333333  0.333333  0.400000      2.000000
 -0.333333  0.333333  0.400000      2.000000
 -0.333333 -0.333333  0.400000      2.000000
  0.333333 -0.333333  0.400000      2.000000
 
 Following cartesian coordinates:
            Coordinates               Weight
  0.000000  0.000000  0.000000      1.000000
  0.025329  0.000000  0.000000      2.000000
  0.000000  0.025329  0.000000      2.000000
  0.025329  0.025329  0.000000      2.000000
 -0.025329  0.025329  0.000000      2.000000
  0.000000  0.000000  0.030395      2.000000
  0.025329  0.000000  0.030395      2.000000
  0.000000  0.025329  0.030395      2.000000
 -0.025329  0.000000  0.030395      2.000000
  0.000000 -0.025329  0.030395      2.000000
  0.025329  0.025329  0.030395      2.000000
 -0.025329  0.025329  0.030395      2.000000
 -0.025329 -0.025329  0.030395      2.000000
  0.025329 -0.025329  0.030395      2.000000
  0.000000  0.000000  0.060790      2.000000
  0.025329  0.000000  0.060790      2.000000
  0.000000  0.025329  0.060790      2.000000
 -0.025329  0.000000  0.060790      2.000000
  0.000000 -0.025329  0.060790      2.000000
  0.025329  0.025329  0.060790      2.000000
 -0.025329  0.025329  0.060790      2.000000
 -0.025329 -0.025329  0.060790      2.000000
  0.025329 -0.025329  0.060790      2.000000
 


--------------------------------------------------------------------------------------------------------




 Dimension of arrays:
   k-points           NKPTS =     23   k-points in BZ     NKDIM =     23   number of bands    NBANDS=    508
   number of dos      NEDOS =    301   number of ions     NIONS =     64
   non local maximal  LDIM  =      6   non local SUM 2l+1 LMDIM =     18
   total plane-waves  NPLWV = 176400
   max r-space proj   IRMAX =      1   max aug-charges    IRDMAX=   9034
   dimension x,y,z NGX =    70 NGY =   70 NGZ =   36
   dimension x,y,z NGXF=   140 NGYF=  140 NGZF=   72
   support grid    NGXF=   140 NGYF=  140 NGZF=   72
   ions per type =              18  22  11  13
   NGX,Y,Z   is equivalent  to a cutoff of   8.84,  8.84,  9.10 a.u.
   NGXF,Y,Z  is equivalent  to a cutoff of  17.69, 17.69, 18.19 a.u.

 SYSTEM =  unknown system                          
 POSCAR =  Nb-Mo-Ta-W alloy                        

 Startparameter for this run:
   NWRITE =      2    write-flag & timer
   PREC   = accura    normal or accurate (medium, high low for compatibility)
   ISTART =      0    job   : 0-new  1-cont  2-samecut
   ICHARG =      2    charge: 1-file 2-atom 10-const
   ISPIN  =      1    spin polarized calculation?
   LNONCOLLINEAR =      F non collinear calculations
   LSORBIT =      F    spin-orbit coupling
   INIWAV =      1    electr: 0-lowe 1-rand  2-diag
   LASPH  =      F    aspherical Exc in radial PAW
 Electronic Relaxation 1
   ENCUT  =  250.0 eV  18.37 Ry    4.29 a.u.  16.97 16.97  8.48*2*pi/ulx,y,z
   ENINI  =  250.0     initial cutoff
   ENAUG  =  455.7 eV  augmentation charge cutoff
   NELM   =     80;   NELMIN=  2; NELMDL= -5     # of ELM steps 
   EDIFF  = 0.1E-07   stopping-criterion for ELM
   LREAL  =      F    real-space projection
   NLSPLINE    = F    spline interpolate recip. space projectors
   LCOMPAT=      F    compatible to vasp.4.4
   GGA_COMPAT  = T    GGA compatible to vasp.4.4-vasp.4.6
   LMAXPAW     = -100 max onsite density
   LMAXMIX     =    2 max onsite mixed and CHGCAR
   VOSKOWN=      0    Vosko Wilk Nusair interpolation
   ROPT   =    0.00000   0.00000   0.00000   0.00000
 Ionic relaxation
   EDIFFG = -.1E-01   stopping-criterion for IOM
   NSW    =      0    number of steps for IOM
   NBLOCK =      1;   KBLOCK =      1    inner block; outer block 
   IBRION =     -1    ionic relax: 0-MD 1-quasi-New 2-CG
   NFREE  =      0    steps in history (QN), initial steepest desc. (CG)
   ISIF   =      2    stress and relaxation
   IWAVPR =     10    prediction:  0-non 1-charg 2-wave 3-comb
   ISYM   =      2    0-nonsym 1-usesym 2-fastsym
   LCORR  =      T    Harris-Foulkes like correction to forces

   POTIM  = 0.5000    time-step for ionic-motion
   TEIN   =    0.0    initial temperature
   TEBEG  =    0.0;   TEEND  =   0.0 temperature during run
   SMASS  =  -3.00    Nose mass-parameter (am)
   estimated Nose-frequenzy (Omega)   =  0.10E-29 period in steps = 0.13E+47 mass=  -0.396E-26a.u.
   SCALEE = 1.0000    scale energy and forces
   NPACO  =    256;   APACO  = 10.0  distance and # of slots for P.C.
   PSTRESS=    0.0 pullay stress

  Mass of Ions in am
   POMASS =  92.91 95.94180.95183.85
  Ionic Valenz
   ZVAL   =  13.00 14.00 11.00 14.00
  Atomic Wigner-Seitz radii
   RWIGS  =  -1.00 -1.00 -1.00 -1.00
  virtual crystal weights 
   VCA    =   1.00  1.00  1.00  1.00
   NELECT =     845.0000    total number of electrons
   NUPDOWN=      -1.0000    fix difference up-down

 DOS related values:
   EMIN   =  10.00;   EMAX   =-10.00  energy-range for DOS
   EFERMI =   0.00
   ISMEAR =     0;   SIGMA  =   0.02  broadening in eV -4-tet -1-fermi 0-gaus

 Electronic relaxation 2 (details)
   IALGO  =     38    algorithm
   LDIAG  =      T    sub-space diagonalisation (order eigenvalues)
   LSUBROT=      F    optimize rotation matrix (better conditioning)
   TURBO    =      0    0=normal 1=particle mesh
   IRESTART =      0    0=no restart 2=restart with 2 vectors
   NREBOOT  =      0    no. of reboots
   NMIN     =      0    reboot dimension
   EREF     =   0.00    reference energy to select bands
   IMIX   =      4    mixing-type and parameters
     AMIX     =   0.40;   BMIX     =  1.00
     AMIX_MAG =   1.60;   BMIX_MAG =  1.00
     AMIN     =   0.10
     WC   =   100.;   INIMIX=   1;  MIXPRE=   1;  MAXMIX= -45

 Intra band minimization:
   WEIMIN = 0.0000     energy-eigenvalue tresh-hold
   EBREAK =  0.49E-11  absolut break condition
   DEPER  =   0.30     relativ break condition  

   TIME   =   0.40     timestep for ELM

  volume/ion in A,a.u.               =      17.81       120.16
  Fermi-wavevector in a.u.,A,eV,Ry     =   1.481771  2.800142 29.873580  2.195646
  Thomas-Fermi vector in A             =   2.595640
 
 Write flags
   LWAVE        =      F    write WAVECAR
   LDOWNSAMPLE  =      F    k-point downsampling of WAVECAR
   LCHARG       =      F    write CHGCAR
   LVTOT        =      F    write LOCPOT, total local potential
   LVHAR        =      F    write LOCPOT, Hartree potential only
   LELF         =      F    write electronic localiz. function (ELF)
   LORBIT       =      0    0 simple, 1 ext, 2 COOP (PROOUT), +10 PAW based schemes


 Dipole corrections
   LMONO  =      F    monopole corrections only (constant potential shift)
   LDIPOL =      F    correct potential (dipole corrections)
   IDIPOL =      0    1-x, 2-y, 3-z, 4-all directions 
   EPSILON=  1.0000000 bulk dielectric constant

 Core level calculations are selected ICORELEVEL =  1
 Exchange correlation treatment:
   GGA     =    PE    GGA type
   LEXCH   =     8    internal setting for exchange type
   LIBXC   =     F    Libxc                    
   VOSKOWN =     0    Vosko Wilk Nusair interpolation
   LHFCALC =     F    Hartree Fock is set to
   LHFONE  =     F    Hartree Fock one center treatment
   AEXX    =    0.0000 exact exchange contribution

 Linear response parameters
   LEPSILON=     F    determine dielectric tensor
   LRPA    =     F    only Hartree local field effects (RPA)
   LNABLA  =     F    use nabla operator in PAW spheres
   LVEL    =     F    velocity operator in full k-point grid
   CSHIFT  =0.1000    complex shift for real part using Kramers Kronig
   OMEGAMAX=  -1.0    maximum frequency
   DEG_THRESHOLD= 0.2000000E-02 threshold for treating states as degnerate
   RTIME   =   -0.100 relaxation time in fs
  (WPLASMAI=    0.000 imaginary part of plasma frequency in eV, 0.658/RTIME)
   DFIELD  = 0.0000000 0.0000000 0.0000000 field for delta impulse in time
 
  Optional k-point grid parameters
   LKPOINTS_OPT  =     F    use optional k-point grid
   KPOINTS_OPT_MODE=     1    mode for optional k-point grid
 
 Orbital magnetization related:
   ORBITALMAG=     F  switch on orbital magnetization
   LCHIMAG   =     F  perturbation theory with respect to B field
   DQ        =  0.001000  dq finite difference perturbation B field
   LLRAUG    =     F  two centre corrections for induced B field



--------------------------------------------------------------------------------------------------------


 Static calculation
 charge density and potential will be updated during run
 non-spin polarized calculation
 Variant of blocked Davidson
 Davidson routine will perform the subspace rotation
 perform sub-space diagonalisation
    after iterative eigenvector-optimisation
 modified Broyden-mixing scheme, WC =      100.0
 initial mixing is a Kerker type mixing with AMIX =  0.4000 and BMIX =      1.0000
 Hartree-type preconditioning will be used
 using additional bands           85
 reciprocal scheme for non local part
 use partial core corrections
 calculate Harris-corrections to forces 
   (improved forces if not selfconsistent)
 use gradient corrections 
 use of overlap-Matrix (Vanderbilt PP)
 Gauss-broadening in eV      SIGMA  =   0.02


--------------------------------------------------------------------------------------------------------


  energy-cutoff  :      250.00
  volume of cell :     1139.56
      direct lattice vectors                 reciprocal lattice vectors
    13.160000000  0.000000000  0.000000000     0.075987842  0.000000000  0.000000000
     0.000000000 13.160000000  0.000000000     0.000000000  0.075987842  0.000000000
     0.000000000  0.000000000  6.580000000     0.000000000  0.000000000  0.151975684

  length of vectors
    13.160000000 13.160000000  6.580000000     0.075987842  0.075987842  0.151975684


 
 k-points in units of 2pi/SCALE and weight: K-Spacing Value to Generate K-Mesh: 0.03
   0.00000000  0.00000000  0.00000000       0.022
   0.02532928  0.00000000  0.00000000       0.044
   0.00000000  0.02532928  0.00000000       0.044
   0.02532928  0.02532928  0.00000000       0.044
  -0.02532928  0.02532928  0.00000000       0.044
   0.00000000  0.00000000  0.03039514       0.044
   0.02532928  0.00000000  0.03039514       0.044
   0.00000000  0.02532928  0.03039514       0.044
  -0.02532928  0.00000000  0.03039514       0.044
   0.00000000 -0.02532928  0.03039514       0.044
   0.02532928  0.02532928  0.03039514       0.044
  -0.02532928  0.02532928  0.03039514       0.044
  -0.02532928 -0.02532928  0.03039514       0.044
   0.02532928 -0.02532928  0.03039514       0.044
   0.00000000  0.00000000  0.06079027       0.044
   0.02532928  0.00000000  0.06079027       0.044
   0.00000000  0.02532928  0.06079027       0.044
  -0.02532928  0.00000000  0.06079027       0.044
   0.00000000 -0.02532928  0.06079027       0.044
   0.02532928  0.02532928  0.06079027       0.044
  -0.02532928  0.02532928  0.06079027       0.044
  -0.02532928 -0.02532928  0.06079027       0.044
   0.02532928 -0.02532928  0.06079027       0.044
 
 k-points in reciprocal lattice and weights: K-Spacing Value to Generate K-Mesh: 0.03
   0.00000000  0.00000000  0.00000000       0.022
   0.33333333  0.00000000  0.00000000       0.044
   0.00000000  0.33333333  0.00000000       0.044
   0.33333333  0.33333333  0.00000000       0.044
  -0.33333333  0.33333333  0.00000000       0.044
   0.00000000  0.00000000  0.20000000       0.044
   0.33333333  0.00000000  0.20000000       0.044
   0.00000000  0.33333333  0.20000000       0.044
  -0.33333333  0.00000000  0.20000000       0.044
   0.00000000 -0.33333333  0.20000000       0.044
   0.33333333  0.33333333  0.20000000       0.044
  -0.33333333  0.33333333  0.20000000       0.044
  -0.33333333 -0.33333333  0.20000000       0.044
   0.33333333 -0.33333333  0.20000000       0.044
   0.00000000  0.00000000  0.40000000       0.044
   0.33333333  0.00000000  0.40000000       0.044
   0.00000000  0.33333333  0.40000000       0.044
  -0.33333333  0.00000000  0.40000000       0.044
   0.00000000 -0.33333333  0.40000000       0.044
   0.33333333  0.33333333  0.40000000       0.044
  -0.33333333  0.33333333  0.40000000       0.044
  -0.33333333 -0.33333333  0.40000000       0.044
   0.33333333 -0.33333333  0.40000000       0.044
 
 position of ions in fractional coordinates (direct lattice) 
   0.25000000  0.50000000  0.50000000
   0.75000000  0.50000000  0.50000000
   0.50000000  0.25000000  0.00000000
   0.37500000  0.87500000  0.25000000
   0.87500000  0.87500000  0.25000000
   0.25000000  0.50000000  0.00000000
   0.87500000  0.87500000  0.75000000
   0.00000000  0.25000000  0.50000000
   0.25000000  0.00000000  0.50000000
   0.37500000  0.12500000  0.25000000
   0.00000000  0.50000000  0.00000000
   0.12500000  0.62500000  0.25000000
   0.00000000  0.00000000  0.50000000
   0.75000000  0.00000000  0.50000000
   0.87500000  0.12500000  0.25000000
   0.37500000  0.37500000  0.75000000
   0.50000000  0.00000000  0.50000000
   0.75000000  0.50000000  0.00000000
   0.25000000  0.00000000  0.00000000
   0.00000000  0.75000000  0.00000000
   0.75000000  0.75000000  0.50000000
   0.62500000  0.12500000  0.75000000
   0.37500000  0.37500000  0.25000000
   0.12500000  0.12500000  0.75000000
   0.75000000  0.00000000  0.00000000
   0.50000000  0.25000000  0.50000000
   0.25000000  0.75000000  0.50000000
   0.12500000  0.87500000  0.25000000
   0.00000000  0.50000000  0.50000000
   0.50000000  0.50000000  0.50000000
   0.25000000  0.25000000  0.00000000
   0.12500000  0.87500000  0.75000000
   0.62500000  0.62500000  0.25000000
   0.50000000  0.50000000  0.00000000
   0.87500000  0.12500000  0.75000000
   0.87500000  0.37500000  0.75000000
   0.37500000  0.62500000  0.75000000
   0.87500000  0.37500000  0.25000000
   0.50000000  0.00000000  0.00000000
   0.00000000  0.75000000  0.50000000
   0.12500000  0.37500000  0.75000000
   0.12500000  0.62500000  0.75000000
   0.62500000  0.37500000  0.25000000
   0.62500000  0.37500000  0.75000000
   0.50000000  0.75000000  0.50000000
   0.87500000  0.62500000  0.75000000
   0.75000000  0.25000000  0.00000000
   0.87500000  0.62500000  0.25000000
   0.62500000  0.87500000  0.25000000
   0.75000000  0.25000000  0.50000000
   0.12500000  0.37500000  0.25000000
   0.00000000  0.25000000  0.00000000
   0.37500000  0.87500000  0.75000000
   0.50000000  0.75000000  0.00000000
   0.62500000  0.62500000  0.75000000
   0.37500000  0.12500000  0.75000000
   0.62500000  0.12500000  0.25000000
   0.25000000  0.75000000  0.00000000
   0.00000000  0.00000000  0.00000000
   0.37500000  0.62500000  0.25000000
   0.75000000  0.75000000  0.00000000
   0.12500000  0.12500000  0.25000000
   0.62500000  0.87500000  0.75000000
   0.25000000  0.25000000  0.50000000
 
 position of ions in cartesian coordinates  (Angst):
   3.29000000  6.58000000  3.29000000
   9.87000000  6.58000000  3.29000000
   6.58000000  3.29000000  0.00000000
   4.93500000 11.51500000  1.64500000
  11.51500000 11.51500000  1.64500000
   3.29000000  6.58000000  0.00000000
  11.51500000 11.51500000  4.93500000
   0.00000000  3.29000000  3.29000000
   3.29000000  0.00000000  3.29000000
   4.93500000  1.64500000  1.64500000
   0.00000000  6.58000000  0.00000000
   1.64500000  8.22500000  1.64500000
   0.00000000  0.00000000  3.29000000
   9.87000000  0.00000000  3.29000000
  11.51500000  1.64500000  1.64500000
   4.93500000  4.93500000  4.93500000
   6.58000000  0.00000000  3.29000000
   9.87000000  6.58000000  0.00000000
   3.29000000  0.00000000  0.00000000
   0.00000000  9.87000000  0.00000000
   9.87000000  9.87000000  3.29000000
   8.22500000  1.64500000  4.93500000
   4.93500000  4.93500000  1.64500000
   1.64500000  1.64500000  4.93500000
   9.87000000  0.00000000  0.00000000
   6.58000000  3.29000000  3.29000000
   3.29000000  9.87000000  3.29000000
   1.64500000 11.51500000  1.64500000
   0.00000000  6.58000000  3.29000000
   6.58000000  6.58000000  3.29000000
   3.29000000  3.29000000  0.00000000
   1.64500000 11.51500000  4.93500000
   8.22500000  8.22500000  1.64500000
   6.58000000  6.58000000  0.00000000
  11.51500000  1.64500000  4.93500000
  11.51500000  4.93500000  4.93500000
   4.93500000  8.22500000  4.93500000
  11.51500000  4.93500000  1.64500000
   6.58000000  0.00000000  0.00000000
   0.00000000  9.87000000  3.29000000
   1.64500000  4.93500000  4.93500000
   1.64500000  8.22500000  4.93500000
   8.22500000  4.93500000  1.64500000
   8.22500000  4.93500000  4.93500000
   6.58000000  9.87000000  3.29000000
  11.51500000  8.22500000  4.93500000
   9.87000000  3.29000000  0.00000000
  11.51500000  8.22500000  1.64500000
   8.22500000 11.51500000  1.64500000
   9.87000000  3.29000000  3.29000000
   1.64500000  4.93500000  1.64500000
   0.00000000  3.29000000  0.00000000
   4.93500000 11.51500000  4.93500000
   6.58000000  9.87000000  0.00000000
   8.22500000  8.22500000  4.93500000
   4.93500000  1.64500000  4.93500000
   8.22500000  1.64500000  1.64500000
   3.29000000  9.87000000  0.00000000
   0.00000000  0.00000000  0.00000000
   4.93500000  8.22500000  1.64500000
   9.87000000  9.87000000  0.00000000
   1.64500000  1.64500000  1.64500000
   8.22500000 11.51500000  4.93500000
   3.29000000  3.29000000  3.29000000
 


--------------------------------------------------------------------------------------------------------


 k-point   1 :   0.0000 0.0000 0.0000  plane waves:   10181
 k-point   2 :   0.3333 0.0000 0.0000  plane waves:   10238
 k-point   3 :   0.0000 0.3333 0.0000  plane waves:   10238
 k-point   4 :   0.3333 0.3333 0.0000  plane waves:   10248
 k-point   5 :  -0.3333 0.3333 0.0000  plane waves:   10248
 k-point   6 :   0.0000 0.0000 0.2000  plane waves:   10193
 k-point   7 :   0.3333 0.0000 0.2000  plane waves:   10246
 k-point   8 :   0.0000 0.3333 0.2000  plane waves:   10246
 k-point   9 :  -0.3333 0.0000 0.2000  plane waves:   10246
 k-point  10 :   0.0000-0.3333 0.2000  plane waves:   10246
 k-point  11 :   0.3333 0.3333 0.2000  plane waves:   10238
 k-point  12 :  -0.3333 0.3333 0.2000  plane waves:   10238
 k-point  13 :  -0.3333-0.3333 0.2000  plane waves:   10238
 k-point  14 :   0.3333-0.3333 0.2000  plane waves:   10238
 k-point  15 :   0.0000 0.0000 0.4000  plane waves:   10201
 k-point  16 :   0.3333 0.0000 0.4000  plane waves:   10223
 k-point  17 :   0.0000 0.3333 0.4000  plane waves:   10223
 k-point  18 :  -0.3333 0.0000 0.4000  plane waves:   10223
 k-point  19 :   0.0000-0.3333 0.4000  plane waves:   10223
 k-point  20 :   0.3333 0.3333 0.4000  plane waves:   10193
 k-point  21 :  -0.3333 0.3333 0.4000  plane waves:   10193
 k-point  22 :  -0.3333-0.3333 0.4000  plane waves:   10193
 k-point  23 :   0.3333-0.3333 0.4000  plane waves:   10193

 maximum and minimum number of plane-waves per node :       880      830

 maximum number of plane-waves:     10248
 maximum index in each direction: 
   IXMAX=   17   IYMAX=   17   IZMAX=    8
   IXMIN=  -17   IYMIN=  -17   IZMIN=   -8


 parallel 3D FFT for wavefunctions:
    minimum data exchange during FFTs selected (reduces bandwidth)
 parallel 3D FFT for charge:
    minimum data exchange during FFTs selected (reduces bandwidth)


 total amount of memory used by VASP MPI-rank0    91701. kBytes
=======================================================================

   base      :      30000. kBytes
   nonl-proj :      12216. kBytes
   fftplans  :       1504. kBytes
   grid      :       2835. kBytes
   one-center:         93. kBytes
   wavefun   :      45053. kBytes
 
     INWAV:  cpu time      0.0000: real time      0.0002
 Broyden mixing: mesh for mixing (old mesh)
   NGX = 33   NGY = 33   NGZ = 17
  (NGX  =140   NGY  =140   NGZ  = 72)
  gives a total of  18513 points

 initial charge density was supplied:
 charge density of overlapping atoms calculated
 number of electron     845.0000000 magnetization 
 keeping initial charge density in first step


--------------------------------------------------------------------------------------------------------


 Maximum index for augmentation-charges          505 (set IRDMAX)


--------------------------------------------------------------------------------------------------------


 First call to EWALD:  gamma=   0.170
 Maximum number of real-space cells 2x 2x 4
 Maximum number of reciprocal cells 3x 3x 2

    FEWALD:  cpu time      0.0018: real time      0.0019


--------------------------------------- Iteration      1(   1)  ---------------------------------------


    POTLOK:  cpu time      0.0194: real time      0.0756
    SETDIJ:  cpu time      0.0046: real time      0.0047
     EDDAV:  cpu time     18.5751: real time     18.6454
       DOS:  cpu time      0.0070: real time      0.0071
    --------------------------------------------
      LOOP:  cpu time     18.6061: real time     18.7328

 eigenvalue-minimisations  : 23840
 total energy-change (2. order) : 0.8043401E+04  (-0.3335651E+05)
 number of electron     845.0000000 magnetization 
 augmentation part      845.0000000 magnetization 

 Free energy of the ion-electron system (eV)
  ---------------------------------------------------
  alpha Z        PSCENC =      7026.91742765
  Ewald energy   TEWEN  =    -88926.13125494
  -Hartree energ DENC   =    -17194.79756963
  -exchange      EXHF   =         0.00000000
  -V(xc)+E(xc)   XCENC  =      3485.95618041
  PAW double counting   =     83215.84144312   -81991.76276835
  entropy T*S    EENTRO =        -0.00420565
  eigenvalues    EBANDS =     -2300.57322340
  atomic energy  EATOM  =    104727.95517551
  Solvation  Ediel_sol  =         0.00000000
  ---------------------------------------------------
  free energy    TOTEN  =      8043.40120473 eV

  energy without entropy =     8043.40541037  energy(sigma->0) =     8043.40330755


--------------------------------------------------------------------------------------------------------




--------------------------------------- Iteration      1(   2)  ---------------------------------------


     EDDAV:  cpu time     18.5267: real time     18.6006
       DOS:  cpu time      0.0071: real time      0.0072
    --------------------------------------------
      LOOP:  cpu time     18.5338: real time     18.6078

 eigenvalue-minimisations  : 23480
 total energy-change (2. order) :-0.8022875E+04  (-0.7789396E+04)
 number of electron     845.0000000 magnetization 
 augmentation part      845.0000000 magnetization 

 Free energy of the ion-electron system (eV)
  ---------------------------------------------------
  alpha Z        PSCENC =      7026.91742765
  Ewald energy   TEWEN  =    -88926.13125494
  -Hartree energ DENC   =    -17194.79756963
  -exchange      EXHF   =         0.00000000
  -V(xc)+E(xc)   XCENC  =      3485.95618041
  PAW double counting   =     83215.84144312   -81991.76276835
  entropy T*S    EENTRO =        -0.00726035
  eigenvalues    EBANDS =    -10323.44557419
  atomic energy  EATOM  =    104727.95517551
  Solvation  Ediel_sol  =         0.00000000
  ---------------------------------------------------
  free energy    TOTEN  =        20.52579922 eV

  energy without entropy =       20.53305958  energy(sigma->0) =       20.52942940


--------------------------------------------------------------------------------------------------------




--------------------------------------- Iteration      1(   3)  ---------------------------------------


     EDDAV:  cpu time     24.8817: real time     24.9801
       DOS:  cpu time      0.0072: real time      0.0072
    --------------------------------------------
      LOOP:  cpu time     24.8888: real time     24.9873

 eigenvalue-minimisations  : 35016
 total energy-change (2. order) :-0.7268433E+03  (-0.6823380E+03)
 number of electron     845.0000000 magnetization 
 augmentation part      845.0000000 magnetization 

 Free energy of the ion-electron system (eV)
  ---------------------------------------------------
  alpha Z        PSCENC =      7026.91742765
  Ewald energy   TEWEN  =    -88926.13125494
  -Hartree energ DENC   =    -17194.79756963
  -exchange      EXHF   =         0.00000000
  -V(xc)+E(xc)   XCENC  =      3485.95618041
  PAW double counting   =     83215.84144312   -81991.76276835
  entropy T*S    EENTRO =        -0.00793532
  eigenvalues    EBANDS =    -11050.28820929
  atomic energy  EATOM  =    104727.95517551
  Solvation  Ediel_sol  =         0.00000000
  ---------------------------------------------------
  free energy    TOTEN  =      -706.31751084 eV

  energy without entropy =     -706.30957552  energy(sigma->0) =     -706.31354318


--------------------------------------------------------------------------------------------------------




--------------------------------------- Iteration      1(   4)  ---------------------------------------


     EDDAV:  cpu time     24.5626: real time     24.6578
       DOS:  cpu time      0.0073: real time      0.0074
    --------------------------------------------
      LOOP:  cpu time     24.5699: real time     24.6651

 eigenvalue-minimisations  : 35912
 total energy-change (2. order) :-0.5535003E+02  (-0.5341023E+02)
 number of electron     845.0000000 magnetization 
 augmentation part      845.0000000 magnetization 

 Free energy of the ion-electron system (eV)
  ---------------------------------------------------
  alpha Z        PSCENC =      7026.91742765
  Ewald energy   TEWEN  =    -88926.13125494
  -Hartree energ DENC   =    -17194.79756963
  -exchange      EXHF   =         0.00000000
  -V(xc)+E(xc)   XCENC  =      3485.95618041
  PAW double counting   =     83215.84144312   -81991.76276835
  entropy T*S    EENTRO =        -0.01041962
  eigenvalues    EBANDS =    -11105.63575500
  atomic energy  EATOM  =    104727.95517551
  Solvation  Ediel_sol  =         0.00000000
  ---------------------------------------------------
  free energy    TOTEN  =      -761.66754085 eV

  energy without entropy =     -761.65712123  energy(sigma->0) =     -761.66233104


--------------------------------------------------------------------------------------------------------




--------------------------------------- Iteration      1(   5)  ---------------------------------------


     EDDAV:  cpu time     25.9180: real time     26.0210
       DOS:  cpu time      0.0068: real time      0.0069
    CHARGE:  cpu time      0.4500: real time      0.4517
    MIXING:  cpu time      0.0004: real time      0.0004
    --------------------------------------------
      LOOP:  cpu time     26.3754: real time     26.4800

 eigenvalue-minimisations  : 37552
 total energy-change (2. order) :-0.3428998E+01  (-0.3394411E+01)
 number of electron     844.9999815 magnetization 
 augmentation part      160.0235591 magnetization 

 Broyden mixing:
  rms(total) = 0.10053E+02    rms(broyden)= 0.10050E+02
  rms(prec ) = 0.10402E+02
  weight for this iteration     100.00

 Free energy of the ion-electron system (eV)
  ---------------------------------------------------
  alpha Z        PSCENC =      7026.91742765
  Ewald energy   TEWEN  =    -88926.13125494
  -Hartree energ DENC   =    -17194.79756963
  -exchange      EXHF   =         0.00000000
  -V(xc)+E(xc)   XCENC  =      3485.95618041
  PAW double counting   =     83215.84144312   -81991.76276835
  entropy T*S    EENTRO =        -0.01047721
  eigenvalues    EBANDS =    -11109.06469494
  atomic energy  EATOM  =    104727.95517551
  Solvation  Ediel_sol  =         0.00000000
  ---------------------------------------------------
  free energy    TOTEN  =      -765.09653839 eV

  energy without entropy =     -765.08606117  energy(sigma->0) =     -765.09129978


--------------------------------------------------------------------------------------------------------




--------------------------------------- Iteration      1(   6)  ---------------------------------------


    POTLOK:  cpu time      0.0163: real time      0.0167
    SETDIJ:  cpu time      0.0041: real time      0.0041
     EDDAV:  cpu time     20.3775: real time     20.4536
       DOS:  cpu time      0.0074: real time      0.0074
    CHARGE:  cpu time      0.4522: real time      0.4539
    MIXING:  cpu time      0.0006: real time      0.0006
    --------------------------------------------
      LOOP:  cpu time     20.8581: real time     20.9365

 eigenvalue-minimisations  : 28392
 total energy-change (2. order) : 0.2849644E+02  (-0.1016862E+02)
 number of electron     844.9999812 magnetization 
 augmentation part      167.4228242 magnetization 

 Broyden mixing:
  rms(total) = 0.36425E+01    rms(broyden)= 0.36415E+01
  rms(prec ) = 0.46923E+01
  weight for this iteration     100.00

 eigenvalues of (default mixing * dielectric matrix)
  average eigenvalue GAMMA=   1.3806
  1.3806

 Free energy of the ion-electron system (eV)
  ---------------------------------------------------
  alpha Z        PSCENC =      7026.91742765
  Ewald energy   TEWEN  =    -88926.13125494
  -Hartree energ DENC   =    -16241.14958356
  -exchange      EXHF   =         0.00000000
  -V(xc)+E(xc)   XCENC  =      3439.05466504
  PAW double counting   =     95615.56948570   -94503.32748890
  entropy T*S    EENTRO =        -0.00951977
  eigenvalues    EBANDS =    -11875.47900082
  atomic energy  EATOM  =    104727.95517551
  Solvation  Ediel_sol  =         0.00000000
  ---------------------------------------------------
  free energy    TOTEN  =      -736.60009410 eV

  energy without entropy =     -736.59057433  energy(sigma->0) =     -736.59533422


--------------------------------------------------------------------------------------------------------




--------------------------------------- Iteration      1(   7)  ---------------------------------------


    POTLOK:  cpu time      0.0168: real time      0.0171
    SETDIJ:  cpu time      0.0045: real time      0.0045
     EDDAV:  cpu time     29.0219: real time     29.5372
       DOS:  cpu time      0.0070: real time      0.0071
    CHARGE:  cpu time      0.4500: real time      0.4516
    MIXING:  cpu time      0.0006: real time      0.0006
    --------------------------------------------
      LOOP:  cpu time     29.5008: real time     30.0181

 eigenvalue-minimisations  : 33456
 total energy-change (2. order) :-0.2775727E+02  (-0.1262461E+02)
 number of electron     844.9999806 magnetization 
 augmentation part      167.3853086 magnetization 

 Broyden mixing:
  rms(total) = 0.32698E+01    rms(broyden)= 0.32671E+01
  rms(prec ) = 0.90608E+01
  weight for this iteration     100.00

 eigenvalues of (default mixing * dielectric matrix)
  average eigenvalue GAMMA=   0.9531
  1.5052  0.4009

 Free energy of the ion-electron system (eV)
  ---------------------------------------------------
  alpha Z        PSCENC =      7026.91742765
  Ewald energy   TEWEN  =    -88926.13125494
  -Hartree energ DENC   =    -16024.08337907
  -exchange      EXHF   =         0.00000000
  -V(xc)+E(xc)   XCENC  =      3424.73476026
  PAW double counting   =    102364.81208139  -101284.17733773
  entropy T*S    EENTRO =        -0.01450473
  eigenvalues    EBANDS =    -12074.37033530
  atomic energy  EATOM  =    104727.95517551
  Solvation  Ediel_sol  =         0.00000000
  ---------------------------------------------------
  free energy    TOTEN  =      -764.35736696 eV

  energy without entropy =     -764.34286223  energy(sigma->0) =     -764.35011460


--------------------------------------------------------------------------------------------------------




--------------------------------------- Iteration      1(   8)  ---------------------------------------


    POTLOK:  cpu time      0.0164: real time      0.0168
    SETDIJ:  cpu time      0.0041: real time      0.0041
     EDDAV:  cpu time     25.8237: real time     25.9288
       DOS:  cpu time      0.0081: real time      0.0081
    CHARGE:  cpu time      0.4482: real time      0.4499
    MIXING:  cpu time      0.0006: real time      0.0006
    --------------------------------------------
      LOOP:  cpu time     26.3011: real time     26.4084

 eigenvalue-minimisations  : 35272
 total energy-change (2. order) : 0.3734503E+02  (-0.9828504E+01)
 number of electron     844.9999809 magnetization 
 augmentation part      167.9692475 magnetization 

 Broyden mixing:
  rms(total) = 0.13649E+01    rms(broyden)= 0.13613E+01
  rms(prec ) = 0.22881E+01
  weight for this iteration     100.00

 eigenvalues of (default mixing * dielectric matrix)
  average eigenvalue GAMMA=   0.8432
  1.6128  0.6390  0.2779

 Free energy of the ion-electron system (eV)
  ---------------------------------------------------
  alpha Z        PSCENC =      7026.91742765
  Ewald energy   TEWEN  =    -88926.13125494
  -Hartree energ DENC   =    -15868.63533920
  -exchange      EXHF   =         0.00000000
  -V(xc)+E(xc)   XCENC  =      3418.46513965
  PAW double counting   =    105031.85857589  -103968.09408517
  entropy T*S    EENTRO =        -0.00878657
  eigenvalues    EBANDS =    -12169.33918542
  atomic energy  EATOM  =    104727.95517551
  Solvation  Ediel_sol  =         0.00000000
  ---------------------------------------------------
  free energy    TOTEN  =      -727.01233260 eV

  energy without entropy =     -727.00354603  energy(sigma->0) =     -727.00793932


--------------------------------------------------------------------------------------------------------




--------------------------------------- Iteration      1(   9)  ---------------------------------------


    POTLOK:  cpu time      0.0160: real time      0.0164
    SETDIJ:  cpu time      0.0043: real time      0.0043
     EDDAV:  cpu time     21.7320: real time     21.8141
       DOS:  cpu time      0.0068: real time      0.0068
    CHARGE:  cpu time      0.4458: real time      0.4476
    MIXING:  cpu time      0.0007: real time      0.0007
    --------------------------------------------
      LOOP:  cpu time     22.2054: real time     22.2898

 eigenvalue-minimisations  : 31200
 total energy-change (2. order) : 0.1880469E+01  (-0.3715778E+01)
 number of electron     844.9999813 magnetization 
[...]
 -0.001   0.015  -0.005  -0.003  -0.004  -0.005  -0.002   0.003   3.347  -0.079   0.012   0.011  -0.002  -1.405   0.051  -0.005
 -0.005  -0.004   0.002  -0.003  -0.003  -0.001   0.001  -0.002  -0.079   3.330  -0.018   0.098   0.030   0.050  -1.402   0.009
  0.002   0.042  -0.000  -0.003  -0.004   0.001   0.006   0.007   0.012  -0.018   2.753   0.010  -0.011  -0.005   0.008  -1.245
  0.003  -0.015  -0.003  -0.002   0.001  -0.002  -0.009   0.000   0.011   0.098   0.010   3.326   0.016  -0.016  -0.057  -0.004
  0.001   0.005  -0.001  -0.000   0.009   0.003  -0.000  -0.016  -0.002   0.030  -0.011   0.016   2.649   0.002  -0.014   0.002
  0.000  -0.015   0.003   0.003   0.002   0.001   0.001  -0.002  -1.405   0.050  -0.005  -0.016   0.002   0.601  -0.029   0.002
  0.004  -0.004  -0.001   0.002   0.002   0.001  -0.001   0.001   0.051  -1.402   0.008  -0.057  -0.014  -0.029   0.602  -0.004
 -0.002  -0.017   0.000   0.002   0.003  -0.001  -0.002  -0.003  -0.005   0.009  -1.245  -0.004   0.002   0.002  -0.004   0.570
 -0.002   0.017   0.002   0.001  -0.001   0.001   0.003   0.001  -0.016  -0.057  -0.003  -1.401  -0.005   0.011   0.031   0.001
 -0.001  -0.001   0.001   0.000  -0.006  -0.002   0.000   0.006   0.002  -0.014   0.001  -0.006  -1.203  -0.001   0.007   0.001


------------------------ aborting loop because EDIFF is reached ----------------------------------------


    CHARGE:  cpu time      0.7683: real time      0.9428
    FORLOC:  cpu time      0.0140: real time      0.0140
    FORNL :  cpu time     16.2909: real time     16.7715
    STRESS:  cpu time     15.5016: real time     15.5787
    FORCOR:  cpu time      0.0406: real time      0.0408
    FORHAR:  cpu time      0.1070: real time      0.1074
    MIXING:  cpu time      0.0015: real time      0.0015
    OFIELD:  cpu time      0.0000: real time      0.0000

  FORCE on cell =-STRESS in cart. coord.  units (eV):
  Direction    XX          YY          ZZ          XY          YZ          ZX
  --------------------------------------------------------------------------------------
  Alpha Z  7026.91743  7026.91743  7026.91743
  Ewald  -29707.02523-29777.10511-29442.45698    -2.77982   -14.50717    -8.92089
  Hartree  5205.53911  5138.64610  5468.89707    -1.23771   -12.18972    -7.52986
  E(xc)   -3906.21441 -3906.19894 -3906.24378    -0.01868     0.00006    -0.00801
  Local    6711.34959  6847.28350  6182.86240     5.39581    25.90185    16.36921
  n-local -1345.54244 -1341.73292 -1344.20491    -1.51183     1.00627    -0.78243
  augment  2180.67928  2180.43646  2180.50071    -0.17743     0.14210     0.14107
  Kinetic 13719.61412 13717.11019 13717.09341     1.45601    -0.72360     0.79612
  Fock        0.00000     0.00000     0.00000     0.00000     0.00000     0.00000
  -------------------------------------------------------------------------------------
  Total    -114.68255  -114.64329  -116.63465     1.12636    -0.37022     0.06520
  in kB    -161.23905  -161.18386  -163.98363     1.58362    -0.52052     0.09167
  external pressure =     -162.14 kB  Pullay stress =        0.00 kB


 VOLUME and BASIS-vectors are now :
 -----------------------------------------------------------------------------
  energy-cutoff  :      250.00
  volume of cell :     1139.56
      direct lattice vectors                 reciprocal lattice vectors
    13.160000000  0.000000000  0.000000000     0.075987842  0.000000000  0.000000000
     0.000000000 13.160000000  0.000000000     0.000000000  0.075987842  0.000000000
     0.000000000  0.000000000  6.580000000     0.000000000  0.000000000  0.151975684

  length of vectors
    13.160000000 13.160000000  6.580000000     0.075987842  0.075987842  0.151975684


 FORCES acting on ions
    electron-ion (+dipol)            ewald-force                    non-local-force                 convergence-correction
 -----------------------------------------------------------------------------------------------
   0.119E+03 0.425E+02 -.269E+02   -.118E+03 -.423E+02 0.266E+02   0.212E-01 -.360E-01 0.278E-01   -.172E-04 0.633E-04 0.151E-04
   -.321E+02 0.638E+02 0.604E+00   0.320E+02 -.641E+02 -.584E+00   -.780E-02 0.170E+00 -.565E-01   -.340E-04 -.536E-04 -.129E-04
   -.130E+03 -.988E+02 -.205E+01   0.130E+03 0.983E+02 0.201E+01   -.343E+00 0.111E+00 0.840E-02   0.667E-04 -.143E-04 0.193E-05
   -.840E+02 0.221E+02 -.474E+02   0.841E+02 -.222E+02 0.467E+02   -.356E+00 -.153E+00 0.156E+00   -.412E-05 0.344E-04 -.668E-05
   0.583E+02 0.407E+02 -.211E+02   -.585E+02 -.411E+02 0.206E+02   0.324E+00 -.110E+00 0.142E+00   0.414E-04 0.229E-05 -.510E-05
   0.127E+03 0.462E+02 0.269E+02   -.127E+03 -.458E+02 -.266E+02   0.376E+00 -.215E-01 -.479E-01   -.211E-04 0.466E-04 -.140E-04
   0.341E+02 0.502E+02 0.211E+02   -.341E+02 -.509E+02 -.206E+02   0.492E-01 0.251E+00 -.173E+00   0.524E-04 -.535E-05 0.425E-05
   0.435E+02 -.119E+03 0.887E+01   -.440E+02 0.118E+03 -.870E+01   0.112E+00 0.274E+00 0.351E-02   -.462E-04 -.162E-05 -.763E-05
   -.224E+02 -.111E+02 0.194E+02   0.221E+02 0.112E+02 -.189E+02   -.516E-01 -.519E-01 -.881E-01   -.203E-04 -.548E-04 -.849E-05
   -.528E+02 -.362E+02 -.120E+02   0.525E+02 0.362E+02 0.118E+02   0.111E+00 0.330E+00 -.250E-01   -.152E-05 -.102E-03 -.318E-04
   0.906E+01 -.123E+02 0.182E+02   -.951E+01 0.117E+02 -.181E+02   -.489E-01 -.318E-01 0.464E-01   -.549E-04 0.439E-05 0.641E-05
   0.760E+02 0.124E+03 0.675E+01   -.764E+02 -.124E+03 -.659E+01   0.184E+00 0.217E+00 0.304E-01   -.796E-05 0.320E-04 0.192E-04
   0.830E+02 -.188E+02 0.107E+02   -.823E+02 0.194E+02 -.105E+02   -.131E+00 -.342E+00 0.558E-01   0.867E-04 -.902E-05 0.114E-04
   0.671E+01 -.230E+02 0.381E+02   -.726E+01 0.238E+02 -.377E+02   0.183E+00 -.193E+00 -.366E-01   -.318E-05 0.517E-06 -.115E-04
   0.917E+02 -.105E+03 -.287E+02   -.913E+02 0.104E+03 0.280E+02   -.851E-01 0.248E+00 0.218E+00   0.341E-04 0.495E-04 0.183E-04
   -.467E+01 -.312E+02 -.718E+01   0.487E+01 0.309E+02 0.695E+01   0.162E-01 0.728E-01 0.107E+00   0.584E-04 0.101E-04 -.105E-04
   -.674E+02 0.261E+02 0.468E+02   0.675E+02 -.262E+02 -.461E+02   0.116E-01 0.328E+00 -.157E+00   -.575E-04 -.408E-04 -.302E-04
   -.403E+02 0.674E+02 -.620E+00   0.406E+02 -.676E+02 0.584E+00   -.301E+00 0.178E+00 0.676E-01   -.213E-04 -.482E-04 0.137E-04
   -.225E+02 -.158E+02 -.207E+02   0.224E+02 0.158E+02 0.204E+02   -.252E+00 -.162E+00 -.394E-01   -.308E-05 -.284E-04 0.118E-04
   0.835E+02 0.172E+03 0.175E+02   -.832E+02 -.172E+03 -.176E+02   0.138E+00 0.647E+00 0.666E-01   0.410E-04 0.330E-04 -.106E-04
   -.385E+02 0.676E+02 0.301E+02   0.376E+02 -.677E+02 -.299E+02   0.314E+00 -.391E-01 -.440E-01   -.431E-04 -.549E-04 0.281E-05
   -.938E+02 -.137E+03 0.129E+02   0.937E+02 0.138E+03 -.127E+02   -.156E+00 -.496E+00 -.824E-02   -.404E-04 0.290E-04 0.343E-04
   -.801E+01 -.232E+02 0.770E+01   0.801E+01 0.228E+02 -.748E+01   0.115E+00 0.379E+00 -.384E-01   0.727E-04 -.269E-05 0.115E-04
   0.520E+02 -.972E+02 0.306E+02   -.520E+02 0.977E+02 -.302E+02   0.194E+00 -.453E+00 0.564E-02   -.101E-04 -.641E-04 -.182E-04
   0.607E+01 -.289E+02 -.408E+02   -.648E+01 0.294E+02 0.406E+02   0.189E+00 -.236E+00 -.135E+00   -.345E-04 -.250E-05 0.283E-05
   -.140E+03 -.958E+02 0.219E+01   0.140E+03 0.952E+02 -.216E+01   -.415E+00 0.422E+00 -.188E-01   0.753E-04 0.134E-04 -.441E-05
   0.222E+02 0.969E+02 -.837E+01   -.216E+02 -.967E+02 0.849E+01   -.361E+00 0.822E-01 -.153E-01   -.610E-05 0.634E-04 -.971E-05
   0.444E+02 0.458E+02 -.226E+02   -.444E+02 -.463E+02 0.222E+02   -.466E-01 0.304E+00 0.666E-01   0.362E-04 0.322E-04 0.160E-04
   0.100E+02 -.559E+01 -.195E+02   -.102E+02 0.500E+01 0.195E+02   -.134E+00 0.250E+00 -.204E-01   -.543E-04 -.145E-04 -.761E-05
   -.103E+03 0.753E+02 -.863E+01   0.103E+03 -.744E+02 0.849E+01   -.639E-01 -.302E+00 0.461E-02   0.100E-03 0.156E-04 0.117E-04
   0.467E+02 -.142E+03 -.277E+00   -.465E+02 0.142E+03 0.246E+00   -.355E+00 -.465E+00 0.208E-01   -.238E-05 -.979E-04 -.110E-04
   0.520E+02 0.642E+02 0.226E+02   -.523E+02 -.647E+02 -.222E+02   0.350E+00 0.250E+00 -.722E-01   0.109E-04 0.424E-04 -.171E-04
   -.843E+02 0.511E+02 -.303E+02   0.844E+02 -.509E+02 0.302E+02   -.328E+00 -.113E+00 0.335E-01   0.560E-05 -.502E-04 0.237E-04
   -.103E+03 0.106E+03 0.858E+01   0.103E+03 -.106E+03 -.849E+01   -.637E-01 0.368E+00 0.218E-01   0.995E-04 0.562E-05 -.120E-04
   0.947E+02 -.116E+03 0.307E+02   -.944E+02 0.116E+03 -.302E+02   -.683E-01 0.255E+00 0.192E-01   0.644E-04 0.345E-04 -.112E-04
   0.770E+02 -.337E+02 0.964E+00   -.766E+02 0.339E+02 -.875E+00   0.876E-01 -.171E+00 -.662E-01   -.486E-04 0.125E-05 -.272E-04
   0.173E+02 0.575E+02 0.304E+02   -.173E+02 -.576E+02 -.302E+02   0.339E+00 0.232E+00 -.415E-01   0.399E-04 0.293E-04 -.358E-04
   0.797E+02 -.236E+02 -.921E+00   -.794E+02 0.234E+02 0.875E+00   0.707E-01 0.259E+00 0.381E-01   -.543E-04 -.748E-05 0.272E-04
   -.726E+02 -.310E+01 -.501E+02   0.727E+02 0.346E+01 0.497E+02   -.167E-01 -.315E+00 -.402E-01   -.408E-04 -.206E-04 0.326E-04
   0.835E+02 0.154E+03 -.176E+02   -.832E+02 -.153E+03 0.176E+02   0.127E+00 -.211E+00 -.495E-01   0.496E-04 0.412E-04 0.106E-04
   0.398E+02 -.814E+02 0.712E+00   -.395E+02 0.811E+02 -.687E+00   -.224E+00 -.176E+00 -.276E-01   -.491E-04 -.107E-04 -.162E-04
   0.642E+02 0.108E+03 -.570E+01   -.646E+02 -.107E+03 0.558E+01   0.120E+00 0.308E+00 -.120E+00   -.703E-05 0.256E-04 -.172E-04
   -.102E+03 0.306E+02 0.606E+01   0.102E+03 -.303E+02 -.588E+01   -.165E+00 -.185E-01 0.505E-01   0.600E-04 0.290E-04 0.156E-04
   -.965E+02 0.284E+02 -.604E+01   0.956E+02 -.282E+02 0.588E+01   0.603E-01 0.175E+00 -.915E-01   0.470E-04 0.296E-04 -.153E-04
   -.528E+02 -.614E+01 0.311E+02   0.528E+02 0.592E+01 -.307E+02   -.102E+00 -.439E+00 -.128E-01   -.565E-05 0.136E-04 -.116E-04
   -.115E+02 0.756E+02 -.571E+01   0.119E+02 -.747E+02 0.558E+01   -.203E+00 -.186E+00 -.106E+00   -.159E-04 -.363E-04 -.214E-05
   0.364E+02 -.966E+02 -.909E+01   -.364E+02 0.966E+02 0.887E+01   0.477E+00 -.349E+00 -.308E-01   -.227E-04 0.749E-04 0.185E-04
   0.402E+01 0.725E+02 0.574E+01   -.356E+01 -.716E+02 -.558E+01   -.187E+00 -.202E+00 0.954E-01   -.206E-04 -.468E-04 0.157E-05
   -.131E+02 0.168E+02 -.402E+02   0.133E+02 -.171E+02 0.395E+02   0.136E+00 0.185E+00 0.224E-01   -.709E-04 -.134E-04 -.213E-04
   0.256E+02 -.875E+02 0.905E+01   -.251E+02 0.873E+02 -.887E+01   -.115E+00 0.113E-02 0.387E-01   -.734E-05 0.911E-04 -.204E-04
   0.456E+02 -.668E+02 -.697E+00   -.457E+02 0.666E+02 0.687E+00   0.627E-01 -.327E+00 0.414E-01   -.619E-04 -.664E-05 0.158E-04
   0.469E+02 -.146E+03 -.946E+01   -.473E+02 0.146E+03 0.937E+01   0.162E+00 -.517E+00 -.677E-01   -.362E-04 -.270E-05 0.293E-05
   -.643E+02 0.341E+02 0.508E+02   0.642E+02 -.344E+02 -.503E+02   -.661E-01 0.654E-01 0.188E+00   -.133E-04 0.194E-04 0.669E-06
   -.673E+02 0.286E+01 -.393E+02   0.672E+02 -.309E+01 0.390E+02   -.628E-01 -.164E+00 -.123E+00   0.138E-06 0.363E-04 0.181E-04
   -.843E+02 0.772E+02 0.303E+02   0.844E+02 -.772E+02 -.302E+02   -.285E+00 0.390E+00 0.366E-01   -.665E-05 -.500E-04 -.242E-04
   -.528E+02 -.582E+02 0.128E+02   0.526E+02 0.586E+02 -.127E+02   -.495E-01 -.296E+00 0.911E-01   -.158E-04 -.758E-04 0.297E-04
   -.938E+02 -.111E+03 -.129E+02   0.937E+02 0.111E+03 0.127E+02   -.126E+00 -.729E-01 -.293E-01   -.410E-04 0.227E-04 -.317E-04
   0.468E+02 0.108E+03 0.835E+01   -.466E+02 -.109E+03 -.849E+01   0.148E+00 0.476E+00 -.229E-01   0.398E-05 0.856E-04 0.135E-04
   0.891E+02 -.130E+02 -.114E+02   -.887E+02 0.132E+02 0.113E+02   0.234E+00 0.147E+00 -.743E-01   0.840E-04 -.279E-04 -.148E-04
   -.244E+01 0.383E+02 -.303E+02   0.235E+01 -.379E+02 0.302E+02   0.328E+00 -.319E+00 -.318E-01   0.350E-04 0.626E-04 0.348E-04
   -.630E+02 0.791E+02 -.302E+02   0.625E+02 -.795E+02 0.299E+02   -.277E+00 0.325E+00 -.417E-02   -.392E-04 -.273E-04 -.395E-05
   0.520E+02 -.945E+02 -.305E+02   -.520E+02 0.949E+02 0.302E+02   0.186E+00 -.241E+00 -.169E+00   -.985E-05 -.648E-04 0.189E-04
   -.244E+02 0.243E+02 0.507E+02   0.248E+02 -.245E+02 -.503E+02   -.313E+00 -.934E-01 0.192E+00   -.569E-04 -.246E-04 0.297E-04
   0.605E+02 -.131E+03 0.248E+00   -.608E+02 0.130E+03 -.246E+00   0.260E+00 -.132E+00 -.207E-01   -.218E-04 -.857E-04 0.106E-04
 -----------------------------------------------------------------------------------------------
   0.276E+00 -.262E+00 0.210E+00   -.810E-12 0.796E-12 -.142E-12   -.276E+00 0.261E+00 -.210E+00   0.361E-04 -.716E-04 0.323E-05
 
 
 POSITION                                       TOTAL-FORCE (eV/Angst)
 -----------------------------------------------------------------------------------
      3.29000      6.58000      3.29000         0.852393      0.098598     -0.230880
      9.87000      6.58000      3.29000        -0.101907     -0.146356     -0.036311
      6.58000      3.29000      0.00000        -0.116254     -0.439963     -0.035742
      4.93500     11.51500      1.64500        -0.294785     -0.261221     -0.541872
     11.51500     11.51500      1.64500         0.052983     -0.569202     -0.363441
      3.29000      6.58000      0.00000         0.851734      0.369279      0.208171
     11.51500     11.51500      4.93500         0.042390     -0.491181      0.357819
      0.00000      3.29000      3.29000        -0.329083     -0.219103      0.171014
      3.29000      0.00000      3.29000        -0.368806      0.099867      0.359947
      4.93500      1.64500      1.64500        -0.199751      0.299885     -0.276706
      0.00000      6.58000      0.00000        -0.495279     -0.647277      0.074527
      1.64500      8.22500      1.64500        -0.178489      0.558175      0.189284
      0.00000      0.00000      3.29000         0.560764      0.165369      0.242088
      9.87000      0.00000      3.29000        -0.361103      0.642911      0.444609
     11.51500      1.64500      1.64500         0.321676     -0.336188     -0.495245
      4.93500      4.93500      4.93500         0.211474     -0.198457     -0.127006
      6.58000      0.00000      3.29000         0.144462      0.169682      0.548748
      9.87000      6.58000      0.00000        -0.056728     -0.020353      0.031324
      3.29000      0.00000      0.00000        -0.347528     -0.079451     -0.343672
      0.00000      9.87000      0.00000         0.414617      0.542739     -0.020048
      9.87000      9.87000      3.29000        -0.579529     -0.203477      0.177532
      8.22500      1.64500      4.93500        -0.278998     -0.300653      0.188313
      4.93500      4.93500      1.64500         0.108302     -0.029224      0.177848
      1.64500      1.64500      4.93500         0.266707      0.021478      0.439443
      9.87000      0.00000      0.00000        -0.216165      0.298107     -0.320744
      6.58000      3.29000      3.29000        -0.022843     -0.217520      0.013341
      3.29000      9.87000      3.29000         0.244061      0.212318      0.106187
      1.64500     11.51500      1.64500        -0.072147     -0.256067     -0.326528
      0.00000      6.58000      3.29000        -0.374461     -0.342814     -0.032411
      6.58000      6.58000      3.29000        -0.140833      0.582350     -0.131890
      3.29000      3.29000      0.00000        -0.076796     -0.523068     -0.010899
      1.64500     11.51500      4.93500         0.026056     -0.256269      0.353810
      8.22500      8.22500      1.64500        -0.177417      0.170755     -0.124804
      6.58000      6.58000      0.00000        -0.149378      0.623651      0.112416
     11.51500      1.64500      4.93500         0.252189     -0.218014      0.516185
     11.51500      4.93500      4.93500         0.397746      0.101610      0.023407
      4.93500      8.22500      4.93500         0.295514      0.207951      0.153372
     11.51500      4.93500      1.64500         0.359938      0.112855     -0.008095
      6.58000      0.00000      0.00000         0.142629      0.048106     -0.501587
      0.00000      9.87000      3.29000         0.431949      0.354216      0.001416
      1.64500      4.93500      4.93500         0.029783     -0.444675     -0.003193
      1.64500      8.22500      4.93500        -0.333378      0.837493     -0.244879
      8.22500      4.93500      1.64500        -0.848698      0.235175      0.234539
      8.22500      4.93500      4.93500        -0.870364      0.355836     -0.250017
      6.58000      9.87000      3.29000        -0.108446     -0.657359      0.442770
     11.51500      8.22500      4.93500         0.204117      0.743442     -0.236931
      9.87000      3.29000      0.00000         0.430708     -0.396231     -0.259221
     11.51500      8.22500      1.64500         0.267638      0.696208      0.255918
      8.22500     11.51500      1.64500         0.359732     -0.128341     -0.660804
      9.87000      3.29000      3.29000         0.342911     -0.197468      0.226938
      1.64500      4.93500      1.64500        -0.001827     -0.511683      0.031173
      0.00000      3.29000      0.00000        -0.280088     -0.387076     -0.155489
      4.93500     11.51500      4.93500        -0.232986     -0.210090      0.628200
      6.58000      9.87000      0.00000        -0.104598     -0.395329     -0.411807
      8.22500      8.22500      4.93500        -0.184186      0.331533      0.201742
      4.93500      1.64500      4.93500        -0.254061      0.133128      0.243427
      8.22500      1.64500      1.64500        -0.233068     -0.225755     -0.211692
      3.29000      9.87000      0.00000         0.372005      0.452370     -0.166151
      0.00000      0.00000      0.00000         0.627869      0.380912     -0.205948
      4.93500      8.22500      1.64500         0.239768      0.115217     -0.187377
      9.87000      9.87000      0.00000        -0.807825     -0.093008     -0.251476
      1.64500      1.64500      1.64500         0.250026      0.208343     -0.557228
      8.22500     11.51500      4.93500         0.154332     -0.293026      0.593289
      3.29000      3.29000      3.29000        -0.058671     -0.473661     -0.018699
 -----------------------------------------------------------------------------------
    total drift:                               -0.000180     -0.000293      0.000012


--------------------------------------------------------------------------------------------------------



  FREE ENERGIE OF THE ION-ELECTRON SYSTEM (eV)
  ---------------------------------------------------
  free  energy   TOTEN  =      -725.03823711 eV

  energy  without entropy=     -725.03142679  energy(sigma->0) =     -725.03483195
 


--------------------------------------------------------------------------------------------------------


    POTLOK:  cpu time      0.0192: real time      0.0193


--------------------------------------------------------------------------------------------------------


     LOOP+:  cpu time    742.5003: real time    751.8985
    4ORBIT:  cpu time      0.0000: real time      0.0000

 total amount of memory used by VASP MPI-rank0    91701. kBytes
=======================================================================

   base      :      30000. kBytes
   nonl-proj :      12216. kBytes
   fftplans  :       1504. kBytes
   grid      :       2835. kBytes
   one-center:         93. kBytes
   wavefun   :      45053. kBytes
 
  
  
 General timing and accounting informations for this job:
 ========================================================
  
                  Total CPU time used (sec):      777.087
                            User time (sec):      769.941
                          System time (sec):        7.146
                         Elapsed time (sec):      790.036
  
                   Maximum memory used (kb):      147976.
                   Average memory used (kb):          N/A
  
                          Minor page faults:        11948
                          Major page faults:            0
                 Voluntary context switches:          236
