 vasp.6.3.1 04May22 (build Jul 26 2022 04:02:40) complex                        
  
 executed on             LinuxIFC date 2023.11.30  02:52:19
 running on   48 total cores
 distrk:  each k-point on   48 cores,    1 groups
 distr:  one band on NCORE=  12 cores,    4 groups


--------------------------------------------------------------------------------------------------------


 INCAR:
   ISTART = 0
   NWRITE = 2
   PREC = Accurate
   ENCUT = 250
   GGA = PE
   NSW = 0
   ISIF = 2
   ISYM = 2
   NBLOCK = 1
   KBLOCK = 1
   IBRION = -1
   NELM = 80
   EDIFF = 1E-08
   EDIFFG = -0.01
   ALGO = Normal
   LDIAG = .TRUE.
   LREAL = .FALSE.
   ISMEAR = 0
   SIGMA = 0.02
   ICHARG = 2
   LPLANE = .TRUE.
   NPAR = 4
   LSCALU = .FALSE.
   NSIM = 4
   LWAVE = .FALSE.
   LCHARG = .FALSE.
   ICORELEVEL = 1

 POTCAR:    PAW_PBE Nb_sv 25May2007               
 POTCAR:    PAW_PBE Mo_sv 02Feb2006               
 POTCAR:    PAW_PBE Ta_pv 07Sep2000               
 POTCAR:    PAW_PBE W_sv 04Sep2015                
 POTCAR:    PAW_PBE Nb_sv 25May2007               
   SHA256 =  0e8fc07c9fcd1164cf2ade22d0399fd28f85e91cd773dfa6cf24839a48c95e24 Nb_sv/POTCAR          
   COPYR  = (c) Copyright 25May2007 Georg Kresse                                                    
   COPYR  = This file is part of the software VASP. Any use, copying, and all other rights are regul
   COPYR  = If you do not have a valid VASP license, you may not use, copy or distribute this file. 
   VRHFIN =Nb: 4p5s4d                                                                               
   LEXCH  = PE                                                                                      
   EATOM  =  1555.1913 eV,  114.3033 Ry                                                             
                                                                                                    
   TITEL  = PAW_PBE Nb_sv 25May2007                                                                 
   LULTRA =        F    use ultrasoft PP ?                                                          
   IUNSCR =        1    unscreen: 0-lin 1-nonlin 2-no                                               
   RPACOR =    1.800    partial core radius                                                         
   POMASS =   92.910; ZVAL   =   13.000    mass and valenz                                          
   RCORE  =    2.400    outmost cutoff radius                                                       
   RWIGS  =    2.400; RWIGS  =    1.270    wigner-seitz radius (au A)                               
   ENMAX  =  293.235; ENMIN  =  219.927 eV                                                          
   ICORE  =        3    local potential                                                             
   LCOR   =        T    correct aug charges                                                         
   LPAW   =        T    paw PP                                                                      
   EAUG   =  455.659                                                                                
   DEXC   =    0.000                                                                                
   RMAX   =    2.456    core radius for proj-oper                                                   
   RAUG   =    1.300    factor for augmentation sphere                                              
   RDEP   =    2.451    radius for radial grids                                                     
   RDEPT  =    1.956    core radius for aug-charge                                                  
                                                                                                    
   Atomic configuration                                                                             
   11 entries                                                                                       
     n  l   j            E        occ.                                                              
     1  0  0.50    -18805.2457   2.0000                                                             
     2  0  0.50     -2630.2869   2.0000                                                             
     2  1  1.50     -2348.4046   6.0000                                                             
     3  0  0.50      -438.8757   2.0000                                                             
     3  1  1.50      -346.7588   6.0000                                                             
     3  2  2.50      -196.2560  10.0000                                                             
     4  0  0.50       -58.3859   2.0000                                                             
     5  0  0.50        -3.9816   1.0000                                                             
     4  1  1.50       -34.5141   6.0000                                                             
     4  2  2.50        -3.0408   4.0000                                                             
     4  3  2.50        -1.3606   0.0000                                                             
   Description                                                                                      
     l       E           TYP  RCUT    TYP  RCUT                                                     
     0    -58.3859094     23  2.200                                                                 
     0     -3.9816262     23  2.200                                                                 
     1    -34.5140738     23  2.200                                                                 
     1     13.6058260     23  2.200                                                                 
     2     -3.0408010     23  2.200                                                                 
     2     -0.1283038     23  2.200                                                                 
     3     -1.3605826     23  2.400                                                                 
  local pseudopotential read in
  partial core-charges read in
  partial kinetic energy density read in
  atomic valenz-charges read in
  non local Contribution for L=           0  read in
    real space projection operators read in
  non local Contribution for L=           0  read in
    real space projection operators read in
  non local Contribution for L=           1  read in
    real space projection operators read in
  non local Contribution for L=           1  read in
    real space projection operators read in
  non local Contribution for L=           2  read in
    real space projection operators read in
  non local Contribution for L=           2  read in
    real space projection operators read in
    PAW grid and wavefunctions read in
 
   number of l-projection  operators is LMAX  =           6
   number of lm-projection operators is LMMAX =          18
 
 POTCAR:    PAW_PBE Mo_sv 02Feb2006               
   SHA256 =  2731df97e41766cc617548c5a8267718fdef1f509ac6bafa01e745abea2bdfaa Mo_sv/POTCAR          
   COPYR  = (c) Copyright 02Feb2006 Georg Kresse                                                    
   COPYR  = This file is part of the software VASP. Any use, copying, and all other rights are regul
   COPYR  = If you do not have a valid VASP license, you may not use, copy or distribute this file. 
   VRHFIN =Mo: 4p5s4d                                                                               
   LEXCH  = PE                                                                                      
   EATOM  =  1862.2866 eV,  136.8742 Ry                                                             
                                                                                                    
   TITEL  = PAW_PBE Mo_sv 02Feb2006                                                                 
   LULTRA =        F    use ultrasoft PP ?                                                          
   IUNSCR =        1    unscreen: 0-lin 1-nonlin 2-no                                               
   RPACOR =    2.200    partial core radius                                                         
   POMASS =   95.940; ZVAL   =   14.000    mass and valenz                                          
   RCORE  =    2.500    outmost cutoff radius                                                       
   RWIGS  =    2.750; RWIGS  =    1.455    wigner-seitz radius (au A)                               
   ENMAX  =  242.676; ENMIN  =  182.007 eV                                                          
   ICORE  =        3    local potential                                                             
   LCOR   =        T    correct aug charges                                                         
   LPAW   =        T    paw PP                                                                      
   EAUG   =  446.014                                                                                
   DEXC   =    0.000                                                                                
   RMAX   =    2.563    core radius for proj-oper                                                   
   RAUG   =    1.300    factor for augmentation sphere                                              
   RDEP   =    2.641    radius for radial grids                                                     
   RDEPT  =    2.031    core radius for aug-charge                                                  
                                                                                                    
   Atomic configuration                                                                             
   11 entries                                                                                       
     n  l   j            E        occ.                                                              
     1  0  0.50    -19819.0341   2.0000                                                             
     2  0  0.50     -2799.0127   2.0000                                                             
     2  1  1.50     -2502.0276   6.0000                                                             
     3  0  0.50      -476.4449   2.0000                                                             
     3  1  1.50      -379.1496   6.0000                                                             
     3  2  2.50      -220.9367  10.0000                                                             
     4  0  0.50       -64.3378   2.0000                                                             
     5  0  0.50        -4.0862   1.0000                                                             
     4  1  1.50       -38.4773   6.0000                                                             
     4  2  2.50        -3.7535   5.0000                                                             
     4  3  2.50        -1.3606   0.0000                                                             
   Description                                                                                      
     l       E           TYP  RCUT    TYP  RCUT                                                     
     0    -64.3377829     23  2.100                                                                 
     0     -4.0861640     23  2.400                                                                 
     1    -38.4772993     23  2.100                                                                 
     1     13.6058260     23  2.100                                                                 
     2     -3.7534941     23  2.400                                                                 
     2     -5.1140767     23  2.400                                                                 
     3     -4.0817478     23  2.500                                                                 
  local pseudopotential read in
  partial core-charges read in
  partial kinetic energy density read in
  atomic valenz-charges read in
  non local Contribution for L=           0  read in
    real space projection operators read in
  non local Contribution for L=           0  read in
    real space projection operators read in
  non local Contribution for L=           1  read in
    real space projection operators read in
  non local Contribution for L=           1  read in
    real space projection operators read in
  non local Contribution for L=           2  read in
    real space projection operators read in
  non local Contribution for L=           2  read in
    real space projection operators read in
    PAW grid and wavefunctions read in
 
   number of l-projection  operators is LMAX  =           6
   number of lm-projection operators is LMMAX =          18
 
 POTCAR:    PAW_PBE Ta_pv 07Sep2000               
   SHA256 =  00d0a14a36c127416459414afb8617d9754996fffa60a2465888e660b20a452f Ta_pv/POTCAR          
   COPYR  = (c) Copyright 07Sep2000 Georg Kresse                                                    
   COPYR  = This file is part of the software VASP. Any use, copying, and all other rights are regul
   COPYR  = If you do not have a valid VASP license, you may not use, copy or distribute this file. 
   VRHFIN =Ta:  5p6s5d                                                                              
   LEXCH  = PE                                                                                      
   EATOM  =  1047.1984 eV,   76.9669 Ry                                                             
                                                                                                    
   TITEL  = PAW_PBE Ta_pv 07Sep2000                                                                 
   LULTRA =        F    use ultrasoft PP ?                                                          
   IUNSCR =        1    unscreen: 0-lin 1-nonlin 2-no                                               
   RPACOR =    2.330    partial core radius                                                         
   POMASS =  180.948; ZVAL   =   11.000    mass and valenz                                          
   RCORE  =    2.500    outmost cutoff radius                                                       
   RWIGS  =    2.840; RWIGS  =    1.503    wigner-seitz radius (au A)                               
   ENMAX  =  223.667; ENMIN  =  167.750 eV                                                          
   RCLOC  =    2.205    cutoff for local pot                                                        
   LCOR   =        T    correct aug charges                                                         
   LPAW   =        T    paw PP                                                                      
   EAUG   =  377.421                                                                                
   DEXC   =    0.000                                                                                
   RMAX   =    2.551    core radius for proj-oper                                                   
   RAUG   =    1.300    factor for augmentation sphere                                              
   RDEP   =    2.526    radius for radial grids                                                     
   RDEPT  =    2.132    core radius for aug-charge                                                  
                                                                                                    
   Atomic configuration                                                                             
   15 entries                                                                                       
     n  l   j            E        occ.                                                              
     1  0  0.50    -67341.2801   2.0000                                                             
     2  0  0.50    -11566.9369   2.0000                                                             
     2  1  1.50    -10134.1175   6.0000                                                             
     3  0  0.50     -2648.5614   2.0000                                                             
     3  1  1.50     -2222.6006   6.0000                                                             
     3  2  2.50     -1726.3114  10.0000                                                             
     4  0  0.50      -538.6957   2.0000                                                             
     4  1  1.50      -399.0125   6.0000                                                             
     4  2  2.50      -220.3955  10.0000                                                             
     4  3  3.50       -23.0371  14.0000                                                             
     5  0  0.50       -71.2900   2.0000                                                             
     5  1  1.50       -37.8224   6.0000                                                             
     5  2  2.50        -2.6455   4.0000                                                             
     6  0  0.50        -4.9623   1.0000                                                             
     5  3  2.50        -1.3606   0.0000                                                             
   Description                                                                                      
     l       E           TYP  RCUT    TYP  RCUT                                                     
     1    -37.8224449     23  2.500                                                                 
     1      1.3605826     23  2.500                                                                 
     2     -2.6454718     23  2.500                                                                 
     2     -0.6258570     23  2.500                                                                 
     0     -4.9622674     23  2.500                                                                 
     0      4.7531427     23  2.500                                                                 
  local pseudopotential read in
  partial core-charges read in
  partial kinetic energy density read in
  atomic valenz-charges read in
  non local Contribution for L=           1  read in
    real space projection operators read in
  non local Contribution for L=           1  read in
    real space projection operators read in
  non local Contribution for L=           2  read in
    real space projection operators read in
  non local Contribution for L=           2  read in
    real space projection operators read in
  non local Contribution for L=           0  read in
    real space projection operators read in
  non local Contribution for L=           0  read in
    real space projection operators read in
    PAW grid and wavefunctions read in
 
   number of l-projection  operators is LMAX  =           6
   number of lm-projection operators is LMMAX =          18
 
 POTCAR:    PAW_PBE W_sv 04Sep2015                
   SHA256 =  931c2d770f65867ef30f3db3421922900fc0890ebac5c3e12f63b6a2064023d7 W_sv/POTCAR           
   COPYR  = (c) Copyright 04Sep2015 Georg Kresse                                                    
   COPYR  = This file is part of the software VASP. Any use, copying, and all other rights are regul
   COPYR  = If you do not have a valid VASP license, you may not use, copy or distribute this file. 
   VRHFIN =W : 5p6s5d                                                                               
   LEXCH  = PE                                                                                      
   EATOM  =  1865.5791 eV,  137.1162 Ry                                                             
                                                                                                    
   TITEL  = PAW_PBE W_sv 04Sep2015                                                                  
   LULTRA =        F    use ultrasoft PP ?                                                          
   IUNSCR =        1    unscreen: 0-lin 1-nonlin 2-no                                               
   RPACOR =    2.330    partial core radius                                                         
   POMASS =  183.850; ZVAL   =   14.000    mass and valenz                                          
   RCORE  =    2.500    outmost cutoff radius                                                       
   RWIGS  =    2.750; RWIGS  =    1.455    wigner-seitz radius (au A)                               
   ENMAX  =  223.057; ENMIN  =  167.293 eV                                                          
   ICORE  =        3    local potential                                                             
   LCOR   =        T    correct aug charges                                                         
   LPAW   =        T    paw PP                                                                      
   EAUG   =  373.438                                                                                
   DEXC   =    0.000                                                                                
   RMAX   =    2.565    core radius for proj-oper                                                   
   RAUG   =    1.300    factor for augmentation sphere                                              
   RDEP   =    2.539    radius for radial grids                                                     
   RDEPT  =    2.126    core radius for aug-charge                                                  
                                                                                                    
   Atomic configuration                                                                             
   15 entries                                                                                       
     n  l   j            E        occ.                                                              
     1  0  0.50    -69465.5834   2.0000                                                             
     2  0  0.50    -11986.2640   2.0000                                                             
     2  1  1.50    -10479.8613   6.0000                                                             
     3  0  0.50     -2759.0756   2.0000                                                             
     3  1  1.50     -2313.1855   6.0000                                                             
     3  2  2.50     -1801.1183  10.0000                                                             
     4  0  0.50      -567.6789   2.0000                                                             
     4  1  1.50      -421.4692   6.0000                                                             
     4  2  2.50      -236.3471  10.0000                                                             
     4  3  3.50       -31.2665  14.0000                                                             
     5  0  0.50       -77.1084   2.0000                                                             
     6  0  0.50        -5.1438   1.0000                                                             
     5  1  1.50       -41.3856   6.0000                                                             
     5  2  2.50        -3.3185   5.0000                                                             
     5  3  2.50        -1.3606   0.0000                                                             
   Description                                                                                      
     l       E           TYP  RCUT    TYP  RCUT                                                     
     0    -77.1084470     23  2.100                                                                 
     0     -5.1437956     23  2.300                                                                 
     1    -41.3855615     23  2.500                                                                 
     1     -2.7211652     23  2.500                                                                 
     2     -3.3185025     23  2.500                                                                 
     2     -1.5965151     23  2.500                                                                 
     3     -1.3605826     23  2.500                                                                 
  local pseudopotential read in
  partial core-charges read in
  partial kinetic energy density read in
  kinetic energy density of atom read in
  atomic valenz-charges read in
  non local Contribution for L=           0  read in
    real space projection operators read in
  non local Contribution for L=           0  read in
    real space projection operators read in
  non local Contribution for L=           1  read in
    real space projection operators read in
  non local Contribution for L=           1  read in
    real space projection operators read in
  non local Contribution for L=           2  read in
    real space projection operators read in
  non local Contribution for L=           2  read in
    real space projection operators read in
    PAW grid and wavefunctions read in
 
   number of l-projection  operators is LMAX  =           6
   number of lm-projection operators is LMMAX =          18
 
  PAW_PBE Nb_sv 25May2007               :
 energy of atom  1       EATOM=-1555.1913
 kinetic energy error for atom=    0.2155 (will be added to EATOM!!)
  PAW_PBE Mo_sv 02Feb2006               :
 energy of atom  2       EATOM=-1862.2866
 kinetic energy error for atom=    0.1102 (will be added to EATOM!!)
  PAW_PBE Ta_pv 07Sep2000               :
 energy of atom  3       EATOM=-1047.1984
 kinetic energy error for atom=    0.0394 (will be added to EATOM!!)
  PAW_PBE W_sv 04Sep2015                :
 energy of atom  4       EATOM=-1865.5791
 kinetic energy error for atom=    0.0589 (will be added to EATOM!!)
 
 
 POSCAR: Nb-Mo-Ta-W alloy
  positions in direct lattice
  No initial velocities read in
 exchange correlation table for  LEXCH =        8
   RHO(1)=    0.500       N(1)  =     2000
   RHO(2)=  100.500       N(2)  =     4000
 


--------------------------------------------------------------------------------------------------------


 ion  position               nearest neighbor table
   1  0.750  0.750  0.250-   2 2.85   3 2.85   4 2.85   6 2.85   9 2.85  10 2.85  12 2.85  13 2.85
                            11 3.29  11 3.29
   2  0.000  0.000  0.000-   1 2.85   5 2.85   7 2.85   8 2.85  11 2.85  14 2.85  15 2.85  16 2.85
                            10 3.29  10 3.29
   3  0.500  0.000  0.500-   1 2.85   5 2.85   7 2.85   8 2.85  11 2.85  14 2.85  15 2.85  16 2.85
                            12 3.29  10 3.29  10 3.29  12 3.29
   4  0.000  0.000  0.500-   1 2.85   5 2.85   7 2.85   8 2.85  11 2.85  14 2.85  15 2.85  16 2.85
                            13 3.29  13 3.29
   5  0.250  0.250  0.250-   2 2.85   3 2.85   4 2.85   6 2.85   9 2.85  10 2.85  12 2.85  13 2.85
                             8 3.29  14 3.29  15 3.29   8 3.29  15 3.29  14 3.29
   6  0.000  0.500  0.000-   1 2.85   5 2.85   7 2.85   8 2.85  11 2.85  14 2.85  15 2.85  16 2.85
                            13 3.29   9 3.29  13 3.29   9 3.29
   7  0.250  0.750  0.750-   2 2.85   3 2.85   4 2.85   6 2.85   9 2.85  10 2.85  12 2.85  13 2.85
                             8 3.29  11 3.29  15 3.29  15 3.29   8 3.29  11 3.29
   8  0.250  0.250  0.750-   2 2.85   3 2.85   4 2.85   6 2.85   9 2.85  10 2.85  12 2.85  13 2.85
                             5 3.29   7 3.29  16 3.29   5 3.29   7 3.29  16 3.29
   9  0.500  0.500  0.000-   1 2.85   5 2.85   7 2.85   8 2.85  11 2.85  14 2.85  15 2.85  16 2.85
                            10 3.29   6 3.29  12 3.29  12 3.29  10 3.29   6 3.29
  10  0.500  0.000  0.000-   1 2.85   5 2.85   7 2.85   8 2.85  11 2.85  14 2.85  15 2.85  16 2.85
                             2 3.29   9 3.29   3 3.29   3 3.29   9 3.29   2 3.29
  11  0.750  0.750  0.750-   2 2.85   3 2.85   4 2.85   6 2.85   9 2.85  10 2.85  12 2.85  13 2.85
                             1 3.29   7 3.29  16 3.29   1 3.29  16 3.29   7 3.29
  12  0.500  0.500  0.500-   1 2.85   5 2.85   7 2.85   8 2.85  11 2.85  14 2.85  15 2.85  16 2.85
                             9 3.29   3 3.29  13 3.29   9 3.29   3 3.29  13 3.29
  13  0.000  0.500  0.500-   1 2.85   5 2.85   7 2.85   8 2.85  11 2.85  14 2.85  15 2.85  16 2.85
                             6 3.29   4 3.29  12 3.29   6 3.29   4 3.29  12 3.29
  14  0.750  0.250  0.250-   2 2.85   3 2.85   4 2.85   6 2.85   9 2.85  10 2.85  12 2.85  13 2.85
                             5 3.29  16 3.29  16 3.29   5 3.29
  15  0.250  0.750  0.250-   2 2.85   3 2.85   4 2.85   6 2.85   9 2.85  10 2.85  12 2.85  13 2.85
                             5 3.29   7 3.29   7 3.29   5 3.29
  16  0.750  0.250  0.750-   2 2.85   3 2.85   4 2.85   6 2.85   9 2.85  10 2.85  12 2.85  13 2.85
                             8 3.29  11 3.29  14 3.29  14 3.29  11 3.29   8 3.29
 
  LATTYP: Found a simple cubic cell.
 ALAT       =     6.5800000000
  
  Lattice vectors:
  
 A1 = (   6.5800000000,   0.0000000000,   0.0000000000)
 A2 = (   0.0000000000,   6.5800000000,   0.0000000000)
 A3 = (   0.0000000000,   0.0000000000,   6.5800000000)


Analysis of symmetry for initial positions (statically):
=====================================================================
 Subroutine PRICEL returns:
 Original cell was already a primitive cell.
 

 Routine SETGRP: Setting up the symmetry group for a 
 simple cubic supercell.


 Subroutine GETGRP returns: Found  1 space group operations
 (whereof  1 operations were pure point group operations)
 out of a pool of 48 trial point group operations.


The static configuration has the point symmetry C_1 .


Analysis of symmetry for dynamics (positions and initial velocities):
=====================================================================
 Subroutine PRICEL returns:
 Original cell was already a primitive cell.
 

 Routine SETGRP: Setting up the symmetry group for a 
 simple cubic supercell.


 Subroutine GETGRP returns: Found  1 space group operations
 (whereof  1 operations were pure point group operations)
 out of a pool of 48 trial point group operations.


The dynamic configuration has the point symmetry C_1 .


 Subroutine INISYM returns: Found  1 space group operations
 (whereof  1 operations are pure point group operations),
 and found     1 'primitive' translations


----------------------------------------------------------------------------------------

                                     Primitive cell                                     

  volume of cell :     284.8903

  direct lattice vectors                    reciprocal lattice vectors
     6.580000000  0.000000000  0.000000000     0.151975684  0.000000000  0.000000000
     0.000000000  6.580000000  0.000000000     0.000000000  0.151975684  0.000000000
     0.000000000  0.000000000  6.580000000     0.000000000  0.000000000  0.151975684

  length of vectors
     6.580000000  6.580000000  6.580000000     0.151975684  0.151975684  0.151975684

  position of ions in fractional coordinates (direct lattice)
     0.750000000  0.750000000  0.250000000
     0.000000000  0.000000000  0.000000000
     0.500000000  0.000000000  0.500000000
     0.000000000  0.000000000  0.500000000
     0.250000000  0.250000000  0.250000000
     0.000000000  0.500000000  0.000000000
     0.250000000  0.750000000  0.750000000
     0.250000000  0.250000000  0.750000000
     0.500000000  0.500000000  0.000000000
     0.500000000  0.000000000  0.000000000
     0.750000000  0.750000000  0.750000000
     0.500000000  0.500000000  0.500000000
     0.000000000  0.500000000  0.500000000
     0.750000000  0.250000000  0.250000000
     0.250000000  0.750000000  0.250000000
     0.750000000  0.250000000  0.750000000

  ion indices of the primitive-cell ions
   primitive index   ion index
                 1           1
                 2           2
                 3           3
                 4           4
                 5           5
                 6           6
                 7           7
                 8           8
                 9           9
                10          10
                11          11
                12          12
                13          13
                14          14
                15          15
                16          16

----------------------------------------------------------------------------------------

 
 
 KPOINTS: K-Spacing Value to Generate K-Mesh: 0.03

Automatic generation of k-mesh.
 Grid dimensions read from file:
 generate k-points for:    5    5    5

 Generating k-lattice:

  Cartesian coordinates                     Fractional coordinates (reciprocal lattice)
     0.030395137  0.000000000  0.000000000     0.200000000  0.000000000  0.000000000
     0.000000000  0.030395137  0.000000000     0.000000000  0.200000000  0.000000000
     0.000000000  0.000000000  0.030395137     0.000000000  0.000000000  0.200000000

  Length of vectors
     0.030395137  0.030395137  0.030395137

  Shift w.r.t. Gamma in fractional coordinates (k-lattice)
     0.000000000  0.000000000  0.000000000

 
 Subroutine IBZKPT returns following result:
 ===========================================
 
 Found     63 irreducible k-points:
 
 Following reciprocal coordinates:
            Coordinates               Weight
  0.000000  0.000000  0.000000      1.000000
  0.200000  0.000000  0.000000      2.000000
  0.000000  0.200000  0.000000      2.000000
  0.000000  0.000000  0.200000      2.000000
  0.400000  0.000000  0.000000      2.000000
  0.000000  0.400000  0.000000      2.000000
  0.000000  0.000000  0.400000      2.000000
  0.200000  0.200000  0.000000      2.000000
  0.000000  0.200000  0.200000      2.000000
  0.200000  0.000000  0.200000      2.000000
 -0.200000  0.200000  0.000000      2.000000
 -0.200000  0.000000  0.200000      2.000000
  0.000000 -0.200000  0.200000      2.000000
  0.400000  0.200000  0.000000      2.000000
  0.000000  0.400000  0.200000      2.000000
  0.200000  0.000000  0.400000      2.000000
 -0.200000  0.400000  0.000000      2.000000
 -0.400000  0.000000  0.200000      2.000000
  0.000000  0.200000  0.400000      2.000000
  0.000000 -0.400000  0.200000      2.000000
 -0.200000  0.000000  0.400000      2.000000
  0.400000  0.000000  0.200000      2.000000
  0.000000 -0.200000  0.400000      2.000000
  0.400000 -0.200000  0.000000      2.000000
  0.200000  0.400000  0.000000      2.000000
  0.400000  0.400000  0.000000      2.000000
  0.000000  0.400000  0.400000      2.000000
  0.400000  0.000000  0.400000      2.000000
 -0.400000  0.400000  0.000000      2.000000
 -0.400000  0.000000  0.400000      2.000000
  0.000000 -0.400000  0.400000      2.000000
  0.200000  0.200000  0.200000      2.000000
 -0.200000  0.200000  0.200000      2.000000
 -0.200000 -0.200000  0.200000      2.000000
  0.200000 -0.200000  0.200000      2.000000
  0.400000  0.200000  0.200000      2.000000
  0.200000  0.400000  0.200000      2.000000
  0.200000  0.200000  0.400000      2.000000
 -0.200000  0.400000  0.200000      2.000000
 -0.400000  0.200000  0.200000      2.000000
 -0.200000  0.200000  0.400000      2.000000
 -0.400000 -0.200000  0.200000      2.000000
 -0.200000 -0.400000  0.200000      2.000000
 -0.200000 -0.200000  0.400000      2.000000
  0.200000 -0.400000  0.200000      2.000000
  0.400000 -0.200000  0.200000      2.000000
  0.200000 -0.200000  0.400000      2.000000
  0.400000  0.400000  0.200000      2.000000
  0.200000  0.400000  0.400000      2.000000
  0.400000  0.200000  0.400000      2.000000
 -0.400000  0.400000  0.200000      2.000000
 -0.400000  0.200000  0.400000      2.000000
 -0.200000  0.400000  0.400000      2.000000
 -0.400000 -0.400000  0.200000      2.000000
 -0.200000 -0.400000  0.400000      2.000000
 -0.400000 -0.200000  0.400000      2.000000
  0.400000 -0.400000  0.200000      2.000000
  0.400000 -0.200000  0.400000      2.000000
  0.200000 -0.400000  0.400000      2.000000
  0.400000  0.400000  0.400000      2.000000
 -0.400000  0.400000  0.400000      2.000000
 -0.400000 -0.400000  0.400000      2.000000
  0.400000 -0.400000  0.400000      2.000000
 
 Following cartesian coordinates:
            Coordinates               Weight
  0.000000  0.000000  0.000000      1.000000
  0.030395  0.000000  0.000000      2.000000
  0.000000  0.030395  0.000000      2.000000
  0.000000  0.000000  0.030395      2.000000
  0.060790  0.000000  0.000000      2.000000
  0.000000  0.060790  0.000000      2.000000
  0.000000  0.000000  0.060790      2.000000
  0.030395  0.030395  0.000000      2.000000
  0.000000  0.030395  0.030395      2.000000
  0.030395  0.000000  0.030395      2.000000
 -0.030395  0.030395  0.000000      2.000000
 -0.030395  0.000000  0.030395      2.000000
  0.000000 -0.030395  0.030395      2.000000
  0.060790  0.030395  0.000000      2.000000
  0.000000  0.060790  0.030395      2.000000
  0.030395  0.000000  0.060790      2.000000
 -0.030395  0.060790  0.000000      2.000000
 -0.060790  0.000000  0.030395      2.000000
  0.000000  0.030395  0.060790      2.000000
  0.000000 -0.060790  0.030395      2.000000
 -0.030395  0.000000  0.060790      2.000000
  0.060790  0.000000  0.030395      2.000000
  0.000000 -0.030395  0.060790      2.000000
  0.060790 -0.030395  0.000000      2.000000
  0.030395  0.060790  0.000000      2.000000
  0.060790  0.060790  0.000000      2.000000
  0.000000  0.060790  0.060790      2.000000
  0.060790  0.000000  0.060790      2.000000
 -0.060790  0.060790  0.000000      2.000000
 -0.060790  0.000000  0.060790      2.000000
  0.000000 -0.060790  0.060790      2.000000
  0.030395  0.030395  0.030395      2.000000
 -0.030395  0.030395  0.030395      2.000000
 -0.030395 -0.030395  0.030395      2.000000
  0.030395 -0.030395  0.030395      2.000000
  0.060790  0.030395  0.030395      2.000000
  0.030395  0.060790  0.030395      2.000000
  0.030395  0.030395  0.060790      2.000000
 -0.030395  0.060790  0.030395      2.000000
 -0.060790  0.030395  0.030395      2.000000
 -0.030395  0.030395  0.060790      2.000000
 -0.060790 -0.030395  0.030395      2.000000
 -0.030395 -0.060790  0.030395      2.000000
 -0.030395 -0.030395  0.060790      2.000000
  0.030395 -0.060790  0.030395      2.000000
  0.060790 -0.030395  0.030395      2.000000
  0.030395 -0.030395  0.060790      2.000000
  0.060790  0.060790  0.030395      2.000000
  0.030395  0.060790  0.060790      2.000000
  0.060790  0.030395  0.060790      2.000000
 -0.060790  0.060790  0.030395      2.000000
 -0.060790  0.030395  0.060790      2.000000
 -0.030395  0.060790  0.060790      2.000000
 -0.060790 -0.060790  0.030395      2.000000
 -0.030395 -0.060790  0.060790      2.000000
 -0.060790 -0.030395  0.060790      2.000000
  0.060790 -0.060790  0.030395      2.000000
  0.060790 -0.030395  0.060790      2.000000
  0.030395 -0.060790  0.060790      2.000000
  0.060790  0.060790  0.060790      2.000000
 -0.060790  0.060790  0.060790      2.000000
 -0.060790 -0.060790  0.060790      2.000000
  0.060790 -0.060790  0.060790      2.000000
 


--------------------------------------------------------------------------------------------------------




 Dimension of arrays:
   k-points           NKPTS =     63   k-points in BZ     NKDIM =     63   number of bands    NBANDS=    124
   number of dos      NEDOS =    301   number of ions     NIONS =     16
   non local maximal  LDIM  =      6   non local SUM 2l+1 LMDIM =     18
   total plane-waves  NPLWV =  46656
   max r-space proj   IRMAX =      1   max aug-charges    IRDMAX=   9546
   dimension x,y,z NGX =    36 NGY =   36 NGZ =   36
   dimension x,y,z NGXF=    72 NGYF=   72 NGZF=   72
   support grid    NGXF=    72 NGYF=   72 NGZF=   72
   ions per type =               4   5   4   3
   NGX,Y,Z   is equivalent  to a cutoff of   9.10,  9.10,  9.10 a.u.
   NGXF,Y,Z  is equivalent  to a cutoff of  18.19, 18.19, 18.19 a.u.

 SYSTEM =  unknown system                          
 POSCAR =  Nb-Mo-Ta-W alloy                        

 Startparameter for this run:
   NWRITE =      2    write-flag & timer
   PREC   = accura    normal or accurate (medium, high low for compatibility)
   ISTART =      0    job   : 0-new  1-cont  2-samecut
   ICHARG =      2    charge: 1-file 2-atom 10-const
   ISPIN  =      1    spin polarized calculation?
   LNONCOLLINEAR =      F non collinear calculations
   LSORBIT =      F    spin-orbit coupling
   INIWAV =      1    electr: 0-lowe 1-rand  2-diag
   LASPH  =      F    aspherical Exc in radial PAW
 Electronic Relaxation 1
   ENCUT  =  250.0 eV  18.37 Ry    4.29 a.u.   8.48  8.48  8.48*2*pi/ulx,y,z
   ENINI  =  250.0     initial cutoff
   ENAUG  =  455.7 eV  augmentation charge cutoff
   NELM   =     80;   NELMIN=  2; NELMDL= -5     # of ELM steps 
   EDIFF  = 0.1E-07   stopping-criterion for ELM
   LREAL  =      F    real-space projection
   NLSPLINE    = F    spline interpolate recip. space projectors
   LCOMPAT=      F    compatible to vasp.4.4
   GGA_COMPAT  = T    GGA compatible to vasp.4.4-vasp.4.6
   LMAXPAW     = -100 max onsite density
   LMAXMIX     =    2 max onsite mixed and CHGCAR
   VOSKOWN=      0    Vosko Wilk Nusair interpolation
   ROPT   =    0.00000   0.00000   0.00000   0.00000
 Ionic relaxation
   EDIFFG = -.1E-01   stopping-criterion for IOM
   NSW    =      0    number of steps for IOM
   NBLOCK =      1;   KBLOCK =      1    inner block; outer block 
   IBRION =     -1    ionic relax: 0-MD 1-quasi-New 2-CG
   NFREE  =      0    steps in history (QN), initial steepest desc. (CG)
   ISIF   =      2    stress and relaxation
   IWAVPR =     10    prediction:  0-non 1-charg 2-wave 3-comb
   ISYM   =      2    0-nonsym 1-usesym 2-fastsym
   LCORR  =      T    Harris-Foulkes like correction to forces

   POTIM  = 0.5000    time-step for ionic-motion
   TEIN   =    0.0    initial temperature
   TEBEG  =    0.0;   TEEND  =   0.0 temperature during run
   SMASS  =  -3.00    Nose mass-parameter (am)
   estimated Nose-frequenzy (Omega)   =  0.10E-29 period in steps = 0.13E+47 mass=  -0.989E-27a.u.
   SCALEE = 1.0000    scale energy and forces
   NPACO  =    256;   APACO  = 10.0  distance and # of slots for P.C.
   PSTRESS=    0.0 pullay stress

  Mass of Ions in am
   POMASS =  92.91 95.94180.95183.85
  Ionic Valenz
   ZVAL   =  13.00 14.00 11.00 14.00
  Atomic Wigner-Seitz radii
   RWIGS  =  -1.00 -1.00 -1.00 -1.00
  virtual crystal weights 
   VCA    =   1.00  1.00  1.00  1.00
   NELECT =     208.0000    total number of electrons
   NUPDOWN=      -1.0000    fix difference up-down

 DOS related values:
   EMIN   =  10.00;   EMAX   =-10.00  energy-range for DOS
   EFERMI =   0.00
   ISMEAR =     0;   SIGMA  =   0.02  broadening in eV -4-tet -1-fermi 0-gaus

 Electronic relaxation 2 (details)
   IALGO  =     38    algorithm
   LDIAG  =      T    sub-space diagonalisation (order eigenvalues)
   LSUBROT=      F    optimize rotation matrix (better conditioning)
   TURBO    =      0    0=normal 1=particle mesh
   IRESTART =      0    0=no restart 2=restart with 2 vectors
   NREBOOT  =      0    no. of reboots
   NMIN     =      0    reboot dimension
   EREF     =   0.00    reference energy to select bands
   IMIX   =      4    mixing-type and parameters
     AMIX     =   0.40;   BMIX     =  1.00
     AMIX_MAG =   1.60;   BMIX_MAG =  1.00
     AMIN     =   0.10
     WC   =   100.;   INIMIX=   1;  MIXPRE=   1;  MAXMIX= -45

 Intra band minimization:
   WEIMIN = 0.0000     energy-eigenvalue tresh-hold
   EBREAK =  0.20E-10  absolut break condition
   DEPER  =   0.30     relativ break condition  

   TIME   =   0.40     timestep for ELM

  volume/ion in A,a.u.               =      17.81       120.16
  Fermi-wavevector in a.u.,A,eV,Ry     =   1.474133  2.785708 29.566393  2.173069
  Thomas-Fermi vector in A             =   2.588942
 
 Write flags
   LWAVE        =      F    write WAVECAR
   LDOWNSAMPLE  =      F    k-point downsampling of WAVECAR
   LCHARG       =      F    write CHGCAR
   LVTOT        =      F    write LOCPOT, total local potential
   LVHAR        =      F    write LOCPOT, Hartree potential only
   LELF         =      F    write electronic localiz. function (ELF)
   LORBIT       =      0    0 simple, 1 ext, 2 COOP (PROOUT), +10 PAW based schemes


 Dipole corrections
   LMONO  =      F    monopole corrections only (constant potential shift)
   LDIPOL =      F    correct potential (dipole corrections)
   IDIPOL =      0    1-x, 2-y, 3-z, 4-all directions 
   EPSILON=  1.0000000 bulk dielectric constant

 Core level calculations are selected ICORELEVEL =  1
 Exchange correlation treatment:
   GGA     =    PE    GGA type
   LEXCH   =     8    internal setting for exchange type
   LIBXC   =     F    Libxc                    
   VOSKOWN =     0    Vosko Wilk Nusair interpolation
   LHFCALC =     F    Hartree Fock is set to
   LHFONE  =     F    Hartree Fock one center treatment
   AEXX    =    0.0000 exact exchange contribution

 Linear response parameters
   LEPSILON=     F    determine dielectric tensor
   LRPA    =     F    only Hartree local field effects (RPA)
   LNABLA  =     F    use nabla operator in PAW spheres
   LVEL    =     F    velocity operator in full k-point grid
   CSHIFT  =0.1000    complex shift for real part using Kramers Kronig
   OMEGAMAX=  -1.0    maximum frequency
   DEG_THRESHOLD= 0.2000000E-02 threshold for treating states as degnerate
   RTIME   =   -0.100 relaxation time in fs
  (WPLASMAI=    0.000 imaginary part of plasma frequency in eV, 0.658/RTIME)
   DFIELD  = 0.0000000 0.0000000 0.0000000 field for delta impulse in time
 
  Optional k-point grid parameters
   LKPOINTS_OPT  =     F    use optional k-point grid
   KPOINTS_OPT_MODE=     1    mode for optional k-point grid
 
 Orbital magnetization related:
   ORBITALMAG=     F  switch on orbital magnetization
   LCHIMAG   =     F  perturbation theory with respect to B field
   DQ        =  0.001000  dq finite difference perturbation B field
   LLRAUG    =     F  two centre corrections for induced B field



--------------------------------------------------------------------------------------------------------


 Static calculation
 charge density and potential will be updated during run
 non-spin polarized calculation
 Variant of blocked Davidson
 Davidson routine will perform the subspace rotation
 perform sub-space diagonalisation
    after iterative eigenvector-optimisation
 modified Broyden-mixing scheme, WC =      100.0
 initial mixing is a Kerker type mixing with AMIX =  0.4000 and BMIX =      1.0000
 Hartree-type preconditioning will be used
 using additional bands           20
 reciprocal scheme for non local part
 use partial core corrections
 calculate Harris-corrections to forces 
   (improved forces if not selfconsistent)
 use gradient corrections 
 use of overlap-Matrix (Vanderbilt PP)
 Gauss-broadening in eV      SIGMA  =   0.02


--------------------------------------------------------------------------------------------------------


  energy-cutoff  :      250.00
  volume of cell :      284.89
      direct lattice vectors                 reciprocal lattice vectors
     6.580000000  0.000000000  0.000000000     0.151975684  0.000000000  0.000000000
     0.000000000  6.580000000  0.000000000     0.000000000  0.151975684  0.000000000
     0.000000000  0.000000000  6.580000000     0.000000000  0.000000000  0.151975684

  length of vectors
     6.580000000  6.580000000  6.580000000     0.151975684  0.151975684  0.151975684


 
 k-points in units of 2pi/SCALE and weight: K-Spacing Value to Generate K-Mesh: 0.03
   0.00000000  0.00000000  0.00000000       0.008
   0.03039514  0.00000000  0.00000000       0.016
   0.00000000  0.03039514  0.00000000       0.016
   0.00000000  0.00000000  0.03039514       0.016
   0.06079027  0.00000000  0.00000000       0.016
   0.00000000  0.06079027  0.00000000       0.016
   0.00000000  0.00000000  0.06079027       0.016
   0.03039514  0.03039514  0.00000000       0.016
   0.00000000  0.03039514  0.03039514       0.016
   0.03039514  0.00000000  0.03039514       0.016
  -0.03039514  0.03039514  0.00000000       0.016
  -0.03039514  0.00000000  0.03039514       0.016
   0.00000000 -0.03039514  0.03039514       0.016
   0.06079027  0.03039514  0.00000000       0.016
   0.00000000  0.06079027  0.03039514       0.016
   0.03039514  0.00000000  0.06079027       0.016
  -0.03039514  0.06079027  0.00000000       0.016
  -0.06079027  0.00000000  0.03039514       0.016
   0.00000000  0.03039514  0.06079027       0.016
   0.00000000 -0.06079027  0.03039514       0.016
  -0.03039514  0.00000000  0.06079027       0.016
   0.06079027  0.00000000  0.03039514       0.016
   0.00000000 -0.03039514  0.06079027       0.016
   0.06079027 -0.03039514  0.00000000       0.016
   0.03039514  0.06079027  0.00000000       0.016
   0.06079027  0.06079027  0.00000000       0.016
   0.00000000  0.06079027  0.06079027       0.016
   0.06079027  0.00000000  0.06079027       0.016
  -0.06079027  0.06079027  0.00000000       0.016
  -0.06079027  0.00000000  0.06079027       0.016
   0.00000000 -0.06079027  0.06079027       0.016
   0.03039514  0.03039514  0.03039514       0.016
  -0.03039514  0.03039514  0.03039514       0.016
  -0.03039514 -0.03039514  0.03039514       0.016
   0.03039514 -0.03039514  0.03039514       0.016
   0.06079027  0.03039514  0.03039514       0.016
   0.03039514  0.06079027  0.03039514       0.016
   0.03039514  0.03039514  0.06079027       0.016
  -0.03039514  0.06079027  0.03039514       0.016
  -0.06079027  0.03039514  0.03039514       0.016
  -0.03039514  0.03039514  0.06079027       0.016
  -0.06079027 -0.03039514  0.03039514       0.016
  -0.03039514 -0.06079027  0.03039514       0.016
  -0.03039514 -0.03039514  0.06079027       0.016
   0.03039514 -0.06079027  0.03039514       0.016
   0.06079027 -0.03039514  0.03039514       0.016
   0.03039514 -0.03039514  0.06079027       0.016
   0.06079027  0.06079027  0.03039514       0.016
   0.03039514  0.06079027  0.06079027       0.016
   0.06079027  0.03039514  0.06079027       0.016
  -0.06079027  0.06079027  0.03039514       0.016
  -0.06079027  0.03039514  0.06079027       0.016
  -0.03039514  0.06079027  0.06079027       0.016
  -0.06079027 -0.06079027  0.03039514       0.016
  -0.03039514 -0.06079027  0.06079027       0.016
  -0.06079027 -0.03039514  0.06079027       0.016
   0.06079027 -0.06079027  0.03039514       0.016
   0.06079027 -0.03039514  0.06079027       0.016
   0.03039514 -0.06079027  0.06079027       0.016
   0.06079027  0.06079027  0.06079027       0.016
  -0.06079027  0.06079027  0.06079027       0.016
  -0.06079027 -0.06079027  0.06079027       0.016
   0.06079027 -0.06079027  0.06079027       0.016
 
 k-points in reciprocal lattice and weights: K-Spacing Value to Generate K-Mesh: 0.03
   0.00000000  0.00000000  0.00000000       0.008
   0.20000000  0.00000000  0.00000000       0.016
   0.00000000  0.20000000  0.00000000       0.016
   0.00000000  0.00000000  0.20000000       0.016
   0.40000000  0.00000000  0.00000000       0.016
   0.00000000  0.40000000  0.00000000       0.016
   0.00000000  0.00000000  0.40000000       0.016
   0.20000000  0.20000000  0.00000000       0.016
   0.00000000  0.20000000  0.20000000       0.016
   0.20000000  0.00000000  0.20000000       0.016
  -0.20000000  0.20000000  0.00000000       0.016
  -0.20000000  0.00000000  0.20000000       0.016
   0.00000000 -0.20000000  0.20000000       0.016
   0.40000000  0.20000000  0.00000000       0.016
   0.00000000  0.40000000  0.20000000       0.016
   0.20000000  0.00000000  0.40000000       0.016
  -0.20000000  0.40000000  0.00000000       0.016
  -0.40000000  0.00000000  0.20000000       0.016
   0.00000000  0.20000000  0.40000000       0.016
   0.00000000 -0.40000000  0.20000000       0.016
  -0.20000000  0.00000000  0.40000000       0.016
   0.40000000  0.00000000  0.20000000       0.016
   0.00000000 -0.20000000  0.40000000       0.016
   0.40000000 -0.20000000  0.00000000       0.016
   0.20000000  0.40000000  0.00000000       0.016
   0.40000000  0.40000000  0.00000000       0.016
   0.00000000  0.40000000  0.40000000       0.016
   0.40000000  0.00000000  0.40000000       0.016
  -0.40000000  0.40000000  0.00000000       0.016
  -0.40000000  0.00000000  0.40000000       0.016
   0.00000000 -0.40000000  0.40000000       0.016
   0.20000000  0.20000000  0.20000000       0.016
  -0.20000000  0.20000000  0.20000000       0.016
  -0.20000000 -0.20000000  0.20000000       0.016
   0.20000000 -0.20000000  0.20000000       0.016
   0.40000000  0.20000000  0.20000000       0.016
   0.20000000  0.40000000  0.20000000       0.016
   0.20000000  0.20000000  0.40000000       0.016
  -0.20000000  0.40000000  0.20000000       0.016
  -0.40000000  0.20000000  0.20000000       0.016
  -0.20000000  0.20000000  0.40000000       0.016
  -0.40000000 -0.20000000  0.20000000       0.016
  -0.20000000 -0.40000000  0.20000000       0.016
  -0.20000000 -0.20000000  0.40000000       0.016
   0.20000000 -0.40000000  0.20000000       0.016
   0.40000000 -0.20000000  0.20000000       0.016
   0.20000000 -0.20000000  0.40000000       0.016
   0.40000000  0.40000000  0.20000000       0.016
   0.20000000  0.40000000  0.40000000       0.016
   0.40000000  0.20000000  0.40000000       0.016
  -0.40000000  0.40000000  0.20000000       0.016
  -0.40000000  0.20000000  0.40000000       0.016
  -0.20000000  0.40000000  0.40000000       0.016
  -0.40000000 -0.40000000  0.20000000       0.016
  -0.20000000 -0.40000000  0.40000000       0.016
  -0.40000000 -0.20000000  0.40000000       0.016
   0.40000000 -0.40000000  0.20000000       0.016
   0.40000000 -0.20000000  0.40000000       0.016
   0.20000000 -0.40000000  0.40000000       0.016
   0.40000000  0.40000000  0.40000000       0.016
  -0.40000000  0.40000000  0.40000000       0.016
  -0.40000000 -0.40000000  0.40000000       0.016
   0.40000000 -0.40000000  0.40000000       0.016
 
 position of ions in fractional coordinates (direct lattice) 
   0.75000000  0.75000000  0.25000000
   0.00000000  0.00000000  0.00000000
   0.50000000  0.00000000  0.50000000
   0.00000000  0.00000000  0.50000000
   0.25000000  0.25000000  0.25000000
   0.00000000  0.50000000  0.00000000
   0.25000000  0.75000000  0.75000000
   0.25000000  0.25000000  0.75000000
   0.50000000  0.50000000  0.00000000
   0.50000000  0.00000000  0.00000000
   0.75000000  0.75000000  0.75000000
   0.50000000  0.50000000  0.50000000
   0.00000000  0.50000000  0.50000000
   0.75000000  0.25000000  0.25000000
   0.25000000  0.75000000  0.25000000
   0.75000000  0.25000000  0.75000000
 
 position of ions in cartesian coordinates  (Angst):
   4.93500000  4.93500000  1.64500000
   0.00000000  0.00000000  0.00000000
   3.29000000  0.00000000  3.29000000
   0.00000000  0.00000000  3.29000000
   1.64500000  1.64500000  1.64500000
   0.00000000  3.29000000  0.00000000
   1.64500000  4.93500000  4.93500000
   1.64500000  1.64500000  4.93500000
   3.29000000  3.29000000  0.00000000
   3.29000000  0.00000000  0.00000000
   4.93500000  4.93500000  4.93500000
   3.29000000  3.29000000  3.29000000
   0.00000000  3.29000000  3.29000000
   4.93500000  1.64500000  1.64500000
   1.64500000  4.93500000  1.64500000
   4.93500000  1.64500000  4.93500000
 


--------------------------------------------------------------------------------------------------------


 k-point   1 :   0.0000 0.0000 0.0000  plane waves:    2517
 k-point   2 :   0.2000 0.0000 0.0000  plane waves:    2545
 k-point   3 :   0.0000 0.2000 0.0000  plane waves:    2545
 k-point   4 :   0.0000 0.0000 0.2000  plane waves:    2545
 k-point   5 :   0.4000 0.0000 0.0000  plane waves:    2569
 k-point   6 :   0.0000 0.4000 0.0000  plane waves:    2569
 k-point   7 :   0.0000 0.0000 0.4000  plane waves:    2569
 k-point   8 :   0.2000 0.2000 0.0000  plane waves:    2562
 k-point   9 :   0.0000 0.2000 0.2000  plane waves:    2562
 k-point  10 :   0.2000 0.0000 0.2000  plane waves:    2562
 k-point  11 :  -0.2000 0.2000 0.0000  plane waves:    2562
 k-point  12 :  -0.2000 0.0000 0.2000  plane waves:    2562
 k-point  13 :   0.0000-0.2000 0.2000  plane waves:    2562
 k-point  14 :   0.4000 0.2000 0.0000  plane waves:    2566
 k-point  15 :   0.0000 0.4000 0.2000  plane waves:    2566
 k-point  16 :   0.2000 0.0000 0.4000  plane waves:    2566
 k-point  17 :  -0.2000 0.4000 0.0000  plane waves:    2566
 k-point  18 :  -0.4000 0.0000 0.2000  plane waves:    2566
 k-point  19 :   0.0000 0.2000 0.4000  plane waves:    2566
 k-point  20 :   0.0000-0.4000 0.2000  plane waves:    2566
 k-point  21 :  -0.2000 0.0000 0.4000  plane waves:    2566
 k-point  22 :   0.4000 0.0000 0.2000  plane waves:    2566
 k-point  23 :   0.0000-0.2000 0.4000  plane waves:    2566
 k-point  24 :   0.4000-0.2000 0.0000  plane waves:    2566
 k-point  25 :   0.2000 0.4000 0.0000  plane waves:    2566
 k-point  26 :   0.4000 0.4000 0.0000  plane waves:    2570
 k-point  27 :   0.0000 0.4000 0.4000  plane waves:    2570
 k-point  28 :   0.4000 0.0000 0.4000  plane waves:    2570
 k-point  29 :  -0.4000 0.4000 0.0000  plane waves:    2570
 k-point  30 :  -0.4000 0.0000 0.4000  plane waves:    2570
 k-point  31 :   0.0000-0.4000 0.4000  plane waves:    2570
 k-point  32 :   0.2000 0.2000 0.2000  plane waves:    2572
 k-point  33 :  -0.2000 0.2000 0.2000  plane waves:    2572
 k-point  34 :  -0.2000-0.2000 0.2000  plane waves:    2572
 k-point  35 :   0.2000-0.2000 0.2000  plane waves:    2572
 k-point  36 :   0.4000 0.2000 0.2000  plane waves:    2546
 k-point  37 :   0.2000 0.4000 0.2000  plane waves:    2546
 k-point  38 :   0.2000 0.2000 0.4000  plane waves:    2546
 k-point  39 :  -0.2000 0.4000 0.2000  plane waves:    2546
 k-point  40 :  -0.4000 0.2000 0.2000  plane waves:    2546
 k-point  41 :  -0.2000 0.2000 0.4000  plane waves:    2546
 k-point  42 :  -0.4000-0.2000 0.2000  plane waves:    2546
 k-point  43 :  -0.2000-0.4000 0.2000  plane waves:    2546
 k-point  44 :  -0.2000-0.2000 0.4000  plane waves:    2546
 k-point  45 :   0.2000-0.4000 0.2000  plane waves:    2546
 k-point  46 :   0.4000-0.2000 0.2000  plane waves:    2546
 k-point  47 :   0.2000-0.2000 0.4000  plane waves:    2546
 k-point  48 :   0.4000 0.4000 0.2000  plane waves:    2549
 k-point  49 :   0.2000 0.4000 0.4000  plane waves:    2549
 k-point  50 :   0.4000 0.2000 0.4000  plane waves:    2549
 k-point  51 :  -0.4000 0.4000 0.2000  plane waves:    2549
 k-point  52 :  -0.4000 0.2000 0.4000  plane waves:    2549
 k-point  53 :  -0.2000 0.4000 0.4000  plane waves:    2549
 k-point  54 :  -0.4000-0.4000 0.2000  plane waves:    2549
 k-point  55 :  -0.2000-0.4000 0.4000  plane waves:    2549
 k-point  56 :  -0.4000-0.2000 0.4000  plane waves:    2549
 k-point  57 :   0.4000-0.4000 0.2000  plane waves:    2549
 k-point  58 :   0.4000-0.2000 0.4000  plane waves:    2549
 k-point  59 :   0.2000-0.4000 0.4000  plane waves:    2549
 k-point  60 :   0.4000 0.4000 0.4000  plane waves:    2533
 k-point  61 :  -0.4000 0.4000 0.4000  plane waves:    2533
 k-point  62 :  -0.4000-0.4000 0.4000  plane waves:    2533
 k-point  63 :   0.4000-0.4000 0.4000  plane waves:    2533

 maximum and minimum number of plane-waves per node :       235      194

 maximum number of plane-waves:      2572
 maximum index in each direction: 
   IXMAX=    8   IYMAX=    8   IZMAX=    8
   IXMIN=   -8   IYMIN=   -8   IZMIN=   -8


 parallel 3D FFT for wavefunctions:
    minimum data exchange during FFTs selected (reduces bandwidth)
 parallel 3D FFT for charge:
    minimum data exchange during FFTs selected (reduces bandwidth)


 total amount of memory used by VASP MPI-rank0    47987. kBytes
=======================================================================

   base      :      30000. kBytes
   nonl-proj :       8332. kBytes
   fftplans  :        456. kBytes
   grid      :        919. kBytes
   one-center:         31. kBytes
   wavefun   :       8249. kBytes
 
     INWAV:  cpu time      0.0000: real time      0.0000
 Broyden mixing: mesh for mixing (old mesh)
   NGX = 17   NGY = 17   NGZ = 17
  (NGX  = 72   NGY  = 72   NGZ  = 72)
  gives a total of   4913 points

 initial charge density was supplied:
 charge density of overlapping atoms calculated
 number of electron     208.0000000 magnetization 
 keeping initial charge density in first step


--------------------------------------------------------------------------------------------------------


 Maximum index for augmentation-charges          517 (set IRDMAX)


--------------------------------------------------------------------------------------------------------


 First call to EWALD:  gamma=   0.269
 Maximum number of real-space cells 3x 3x 3
 Maximum number of reciprocal cells 3x 3x 3

    FEWALD:  cpu time      0.0012: real time      0.0012


--------------------------------------- Iteration      1(   1)  ---------------------------------------


    POTLOK:  cpu time      0.0068: real time      0.0224
    SETDIJ:  cpu time      0.0025: real time      0.0026
     EDDAV:  cpu time      3.0157: real time      3.0281
       DOS:  cpu time      0.0045: real time      0.0046
    --------------------------------------------
      LOOP:  cpu time      3.0294: real time      3.0577

 eigenvalue-minimisations  : 16096
 total energy-change (2. order) : 0.1913948E+04  (-0.8241867E+04)
 number of electron     208.0000000 magnetization 
 augmentation part      208.0000000 magnetization 

 Free energy of the ion-electron system (eV)
  ---------------------------------------------------
  alpha Z        PSCENC =      1798.76847199
  Ewald energy   TEWEN  =    -21607.47707063
  -Hartree energ DENC   =     -4081.51942403
  -exchange      EXHF   =         0.00000000
  -V(xc)+E(xc)   XCENC  =       825.12451231
  PAW double counting   =     20098.47166212   -19796.22084098
  entropy T*S    EENTRO =        -0.00050714
  eigenvalues    EBANDS =      -639.18058055
  atomic energy  EATOM  =     25315.98145792
  Solvation  Ediel_sol  =         0.00000000
  ---------------------------------------------------
  free energy    TOTEN  =      1913.94768100 eV

  energy without entropy =     1913.94818814  energy(sigma->0) =     1913.94793457


--------------------------------------------------------------------------------------------------------




--------------------------------------- Iteration      1(   2)  ---------------------------------------


     EDDAV:  cpu time      3.0494: real time      3.0626
       DOS:  cpu time      0.0041: real time      0.0041
    --------------------------------------------
      LOOP:  cpu time      3.0535: real time      3.0667

 eigenvalue-minimisations  : 16260
 total energy-change (2. order) :-0.1937037E+04  (-0.1875276E+04)
 number of electron     208.0000000 magnetization 
 augmentation part      208.0000000 magnetization 

 Free energy of the ion-electron system (eV)
  ---------------------------------------------------
  alpha Z        PSCENC =      1798.76847199
  Ewald energy   TEWEN  =    -21607.47707063
  -Hartree energ DENC   =     -4081.51942403
  -exchange      EXHF   =         0.00000000
  -V(xc)+E(xc)   XCENC  =       825.12451231
  PAW double counting   =     20098.47166212   -19796.22084098
  entropy T*S    EENTRO =        -0.00214324
  eigenvalues    EBANDS =     -2576.21546241
  atomic energy  EATOM  =     25315.98145792
  Solvation  Ediel_sol  =         0.00000000
  ---------------------------------------------------
  free energy    TOTEN  =       -23.08883697 eV

  energy without entropy =      -23.08669372  energy(sigma->0) =      -23.08776535


--------------------------------------------------------------------------------------------------------




--------------------------------------- Iteration      1(   3)  ---------------------------------------


     EDDAV:  cpu time      3.9996: real time      4.0156
       DOS:  cpu time      0.0046: real time      0.0047
    --------------------------------------------
      LOOP:  cpu time      4.0042: real time      4.0203

 eigenvalue-minimisations  : 23568
 total energy-change (2. order) :-0.1585771E+03  (-0.1499653E+03)
 number of electron     208.0000000 magnetization 
 augmentation part      208.0000000 magnetization 

 Free energy of the ion-electron system (eV)
  ---------------------------------------------------
  alpha Z        PSCENC =      1798.76847199
  Ewald energy   TEWEN  =    -21607.47707063
  -Hartree energ DENC   =     -4081.51942403
  -exchange      EXHF   =         0.00000000
  -V(xc)+E(xc)   XCENC  =       825.12451231
  PAW double counting   =     20098.47166212   -19796.22084098
  entropy T*S    EENTRO =        -0.00244806
  eigenvalues    EBANDS =     -2734.79230739
  atomic energy  EATOM  =     25315.98145792
  Solvation  Ediel_sol  =         0.00000000
  ---------------------------------------------------
  free energy    TOTEN  =      -181.66598676 eV

  energy without entropy =     -181.66353870  energy(sigma->0) =     -181.66476273


--------------------------------------------------------------------------------------------------------




--------------------------------------- Iteration      1(   4)  ---------------------------------------


     EDDAV:  cpu time      4.0686: real time      4.0848
       DOS:  cpu time      0.0046: real time      0.0046
    --------------------------------------------
      LOOP:  cpu time      4.0732: real time      4.0894

 eigenvalue-minimisations  : 24640
 total energy-change (2. order) :-0.9807596E+01  (-0.9512510E+01)
 number of electron     208.0000000 magnetization 
 augmentation part      208.0000000 magnetization 

 Free energy of the ion-electron system (eV)
  ---------------------------------------------------
  alpha Z        PSCENC =      1798.76847199
  Ewald energy   TEWEN  =    -21607.47707063
  -Hartree energ DENC   =     -4081.51942403
  -exchange      EXHF   =         0.00000000
  -V(xc)+E(xc)   XCENC  =       825.12451231
  PAW double counting   =     20098.47166212   -19796.22084098
  entropy T*S    EENTRO =        -0.00312699
  eigenvalues    EBANDS =     -2744.59922491
  atomic energy  EATOM  =     25315.98145792
  Solvation  Ediel_sol  =         0.00000000
  ---------------------------------------------------
  free energy    TOTEN  =      -191.47358320 eV

  energy without entropy =     -191.47045622  energy(sigma->0) =     -191.47201971


--------------------------------------------------------------------------------------------------------




--------------------------------------- Iteration      1(   5)  ---------------------------------------


     EDDAV:  cpu time      3.8891: real time      3.9070
       DOS:  cpu time      0.0040: real time      0.0040
    CHARGE:  cpu time      0.0823: real time      0.0825
    MIXING:  cpu time      0.0002: real time      0.0002
    --------------------------------------------
      LOOP:  cpu time      3.9756: real time      3.9938

 eigenvalue-minimisations  : 23184
 total energy-change (2. order) :-0.5500227E+00  (-0.5450682E+00)
 number of electron     207.9999799 magnetization 
 augmentation part       41.3374001 magnetization 

 Broyden mixing:
  rms(total) = 0.51550E+01    rms(broyden)= 0.51538E+01
  rms(prec ) = 0.57158E+01
  weight for this iteration     100.00

 Free energy of the ion-electron system (eV)
  ---------------------------------------------------
  alpha Z        PSCENC =      1798.76847199
  Ewald energy   TEWEN  =    -21607.47707063
  -Hartree energ DENC   =     -4081.51942403
  -exchange      EXHF   =         0.00000000
  -V(xc)+E(xc)   XCENC  =       825.12451231
  PAW double counting   =     20098.47166212   -19796.22084098
  entropy T*S    EENTRO =        -0.00314632
  eigenvalues    EBANDS =     -2745.14922832
  atomic energy  EATOM  =     25315.98145792
  Solvation  Ediel_sol  =         0.00000000
  ---------------------------------------------------
  free energy    TOTEN  =      -192.02360595 eV

  energy without entropy =     -192.02045963  energy(sigma->0) =     -192.02203279


--------------------------------------------------------------------------------------------------------




--------------------------------------- Iteration      1(   6)  ---------------------------------------


    POTLOK:  cpu time      0.0048: real time      0.0050
    SETDIJ:  cpu time      0.0019: real time      0.0019
     EDDAV:  cpu time      3.3120: real time      3.3258
       DOS:  cpu time      0.0043: real time      0.0043
    CHARGE:  cpu time      0.0829: real time      0.0832
    MIXING:  cpu time      0.0003: real time      0.0003
    --------------------------------------------
      LOOP:  cpu time      3.4061: real time      3.4203

 eigenvalue-minimisations  : 18536
 total energy-change (2. order) : 0.7232996E+01  (-0.2386699E+01)
 number of electron     207.9999784 magnetization 
 augmentation part       43.1641715 magnetization 

 Broyden mixing:
  rms(total) = 0.19215E+01    rms(broyden)= 0.19212E+01
  rms(prec ) = 0.25359E+01
  weight for this iteration     100.00

 eigenvalues of (default mixing * dielectric matrix)
  average eigenvalue GAMMA=   1.3886
  1.3886

 Free energy of the ion-electron system (eV)
  ---------------------------------------------------
  alpha Z        PSCENC =      1798.76847199
  Ewald energy   TEWEN  =    -21607.47707063
  -Hartree energ DENC   =     -3854.04281682
  -exchange      EXHF   =         0.00000000
  -V(xc)+E(xc)   XCENC  =       813.88727168
  PAW double counting   =     23468.92710602   -23193.97758465
  entropy T*S    EENTRO =        -0.00161948
  eigenvalues    EBANDS =     -2926.85582567
  atomic energy  EATOM  =     25315.98145792
  Solvation  Ediel_sol  =         0.00000000
  ---------------------------------------------------
  free energy    TOTEN  =      -184.79060965 eV

  energy without entropy =     -184.78899017  energy(sigma->0) =     -184.78979991


--------------------------------------------------------------------------------------------------------




--------------------------------------- Iteration      1(   7)  ---------------------------------------


    POTLOK:  cpu time      0.0045: real time      0.0047
    SETDIJ:  cpu time      0.0018: real time      0.0018
     EDDAV:  cpu time      3.7910: real time      3.8059
       DOS:  cpu time      0.0043: real time      0.0043
    CHARGE:  cpu time      0.0823: real time      0.0825
    MIXING:  cpu time      0.0003: real time      0.0003
    --------------------------------------------
      LOOP:  cpu time      3.8840: real time      3.8993

 eigenvalue-minimisations  : 22160
 total energy-change (2. order) :-0.4856374E+00  (-0.1973674E+01)
 number of electron     207.9999795 magnetization 
 augmentation part       42.8689241 magnetization 

 Broyden mixing:
  rms(total) = 0.12309E+01    rms(broyden)= 0.12305E+01
  rms(prec ) = 0.28294E+01
  weight for this iteration     100.00

 eigenvalues of (default mixing * dielectric matrix)
  average eigenvalue GAMMA=   1.0745
  1.6099  0.5390

 Free energy of the ion-electron system (eV)
  ---------------------------------------------------
  alpha Z        PSCENC =      1798.76847199
  Ewald energy   TEWEN  =    -21607.47707063
  -Hartree energ DENC   =     -3802.52853888
  -exchange      EXHF   =         0.00000000
  -V(xc)+E(xc)   XCENC  =       810.75982525
  PAW double counting   =     25407.29869553   -25139.56085628
  entropy T*S    EENTRO =        -0.00189224
  eigenvalues    EBANDS =     -2968.51633969
  atomic energy  EATOM  =     25315.98145792
  Solvation  Ediel_sol  =         0.00000000
  ---------------------------------------------------
  free energy    TOTEN  =      -185.27624705 eV

  energy without entropy =     -185.27435480  energy(sigma->0) =     -185.27530092


--------------------------------------------------------------------------------------------------------




--------------------------------------- Iteration      1(   8)  ---------------------------------------


    POTLOK:  cpu time      0.0045: real time      0.0046
    SETDIJ:  cpu time      0.0017: real time      0.0017
     EDDAV:  cpu time      3.4352: real time      3.4501
       DOS:  cpu time      0.0046: real time      0.0046
    CHARGE:  cpu time      0.0830: real time      0.0833
    MIXING:  cpu time      0.0003: real time      0.0003
    --------------------------------------------
      LOOP:  cpu time      3.5293: real time      3.5446

 eigenvalue-minimisations  : 19932
 total energy-change (2. order) : 0.2771780E+01  (-0.9948434E+00)
 number of electron     207.9999789 magnetization 
 augmentation part       43.3923615 magnetization 

 Broyden mixing:
  rms(total) = 0.39989E+00    rms(broyden)= 0.39898E+00
  rms(prec ) = 0.54792E+00
  weight for this iteration     100.00

 eigenvalues of (default mixing * dielectric matrix)
  average eigenvalue GAMMA=   1.0686
  1.7390  1.0542  0.4126

 Free energy of the ion-electron system (eV)
  ---------------------------------------------------
  alpha Z        PSCENC =      1798.76847199
  Ewald energy   TEWEN  =    -21607.47707063
  -Hartree energ DENC   =     -3753.79760519
  -exchange      EXHF   =         0.00000000
  -V(xc)+E(xc)   XCENC  =       808.56499461
  PAW double counting   =     26356.94356047   -26095.18496967
  entropy T*S    EENTRO =        -0.00060063
  eigenvalues    EBANDS =     -3006.30270625
  atomic energy  EATOM  =     25315.98145792
  Solvation  Ediel_sol  =         0.00000000
  ---------------------------------------------------
  free energy    TOTEN  =      -182.50446738 eV

  energy without entropy =     -182.50386675  energy(sigma->0) =     -182.50416706


--------------------------------------------------------------------------------------------------------




--------------------------------------- Iteration      1(   9)  ---------------------------------------


    POTLOK:  cpu time      0.0045: real time      0.0046
    SETDIJ:  cpu time      0.0018: real time      0.0018
     EDDAV:  cpu time      3.5921: real time      3.6066
       DOS:  cpu time      0.0043: real time      0.0043
    CHARGE:  cpu time      0.0786: real time      0.0788
    MIXING:  cpu time      0.0003: real time      0.0003
    --------------------------------------------
      LOOP:  cpu time      3.6815: real time      3.6964

 eigenvalue-minimisations  : 20808
 total energy-change (2. order) :-0.4429252E-01  (-0.1469884E+00)
 number of electron     207.9999789 magnetization 
 augmentation part       43.4812978 magnetization 

 Broyden mixing:
  rms(total) = 0.29100E+00    rms(broyden)= 0.29093E+00
  rms(prec ) = 0.39146E+00
  weight for this iteration     100.00

 eigenvalues of (default mixing * dielectric matrix)
  average eigenvalue GAMMA=   1.1798
  2.0434  1.6580  0.6203  0.3973

 Free energy of the ion-electron system (eV)
  ---------------------------------------------------
  alpha Z        PSCENC =      1798.76847199
  Ewald energy   TEWEN  =    -21607.47707063
  -Hartree energ DENC   =     -3745.72755186
  -exchange      EXHF   =         0.00000000
  -V(xc)+E(xc)   XCENC  =       808.19624803
  PAW double counting   =     26694.25514770   -26432.59299162
  entropy T*S    EENTRO =        -0.00040802
  eigenvalues    EBANDS =     -3013.95206340
  atomic energy  EATOM  =     25315.98145792
  Solvation  Ediel_sol  =         0.00000000
  ---------------------------------------------------
  free energy    TOTEN  =      -182.54875990 eV

  energy without entropy =     -182.54835189  energy(sigma->0) =     -182.54855590


--------------------------------------------------------------------------------------------------------




--------------------------------------- Iteration      1(  10)  ---------------------------------------


    POTLOK:  cpu time      0.0045: real time      0.0046
    SETDIJ:  cpu time      0.0018: real time      0.0018
     EDDAV:  cpu time      3.5680: real time      3.5828
       DOS:  cpu time      0.0044: real time      0.0044
    CHARGE:  cpu time      0.0826: real time      0.0829
    MIXING:  cpu time      0.0003: real time      0.0003
    --------------------------------------------
      LOOP:  cpu time      3.6616: real time      3.6768

 eigenvalue-minimisations  : 20624
 total energy-change (2. order) : 0.1546930E-01  (-0.3522827E-01)
 number of electron     207.9999789 magnetization 
 augmentation part       43.4053463 magnetization 

 Broyden mixing:
  rms(total) = 0.14684E+00    rms(broyden)= 0.14680E+00
  rms(prec ) = 0.23541E+00
  weight for this iteration     100.00

 eigenvalues of (default mixing * dielectric matrix)
  average eigenvalue GAMMA=   1.1772
  2.5476  1.7067  0.8087  0.4114  0.4114

 Free energy of the ion-electron system (eV)
  ---------------------------------------------------
  alpha Z        PSCENC =      1798.76847199
  Ewald energy   TEWEN  =    -21607.47707063
  -Hartree energ DENC   =     -3747.18406138
  -exchange      EXHF   =         0.00000000
  -V(xc)+E(xc)   XCENC  =       808.23284657
  PAW double counting   =     26886.59786278   -26623.65242437
  entropy T*S    EENTRO =        -0.00054987
  eigenvalues    EBANDS =     -3013.79982361
  atomic energy  EATOM  =     25315.98145792
  Solvation  Ediel_sol  =         0.00000000
  ---------------------------------------------------
  free energy    TOTEN  =      -182.53329060 eV

  energy without entropy =     -182.53274073  energy(sigma->0) =     -182.53301567


--------------------------------------------------------------------------------------------------------




--------------------------------------- Iteration      1(  11)  ---------------------------------------


    POTLOK:  cpu time      0.0045: real time      0.0047
    SETDIJ:  cpu time      0.0018: real time      0.0018
     EDDAV:  cpu time      3.5305: real time      3.5446
       DOS:  cpu time      0.0045: real time      0.0045
    CHARGE:  cpu time      0.0828: real time      0.0830
    MIXING:  cpu time      0.0003: real time      0.0003
    --------------------------------------------
      LOOP:  cpu time      3.6244: real time      3.6390

 eigenvalue-minimisations  : 20332
 total energy-change (2. order) : 0.8639850E-02  (-0.1077813E-01)
 number of electron     207.9999790 magnetization 
 augmentation part       43.3792649 magnetization 

 Broyden mixing:
  rms(total) = 0.48766E-01    rms(broyden)= 0.48680E-01
  rms(prec ) = 0.11651E+00
  weight for this iteration     100.00

 eigenvalues of (default mixing * dielectric matrix)
  average eigenvalue GAMMA=   1.0783
  2.5355  1.7138  0.8570  0.5304  0.4424  0.3905

 Free energy of the ion-electron system (eV)
  ---------------------------------------------------
  alpha Z        PSCENC =      1798.76847199
  Ewald energy   TEWEN  =    -21607.47707063
  -Hartree energ DENC   =     -3748.96032175
  -exchange      EXHF   =         0.00000000
  -V(xc)+E(xc)   XCENC  =       808.31171956
  PAW double counting   =     26993.73855265   -26729.58695561
  entropy T*S    EENTRO =        -0.00054368
  eigenvalues    EBANDS =     -3013.29996119
  atomic energy  EATOM  =     25315.98145792
  Solvation  Ediel_sol  =         0.00000000
  ---------------------------------------------------
  free energy    TOTEN  =      -182.52465075 eV

  energy without entropy =     -182.52410707  energy(sigma->0) =     -182.52437891


--------------------------------------------------------------------------------------------------------




--------------------------------------- Iteration      1(  12)  ---------------------------------------


    POTLOK:  cpu time      0.0046: real time      0.0048
    SETDIJ:  cpu time      0.0017: real time      0.0017
     EDDAV:  cpu time      3.5294: real time      3.5438
       DOS:  cpu time      0.0041: real time      0.0041
    CHARGE:  cpu time      0.0864: real time      0.0867
[...]
     25     -25.5653      2.00000
     26     -25.5305      2.00000
     27     -25.4953      2.00000
     28     -25.4176      2.00000
     29     -25.3938      2.00000
     30     -25.3466      2.00000
     31     -25.3304      2.00000
     32     -25.2773      2.00000
     33     -25.2668      2.00000
     34     -25.2386      2.00000
     35     -25.2119      2.00000
     36     -25.1666      2.00000
     37     -24.8461      2.00000
     38     -24.7232      2.00000
     39     -24.6220      2.00000
     40     -24.5908      2.00000
     41     -24.5746      2.00000
     42     -24.5618      2.00000
     43     -24.5340      2.00000
     44     -24.5156      2.00000
     45     -24.4957      2.00000
     46     -24.4746      2.00000
     47     -24.3603      2.00000
     48     -24.2448      2.00000
     49     -21.5066      2.00000
     50     -21.4883      2.00000
     51     -21.3517      2.00000
     52     -21.2717      2.00000
     53     -21.2596      2.00000
     54     -21.2459      2.00000
     55     -21.2261      2.00000
     56     -21.2152      2.00000
     57     -21.1907      2.00000
     58     -21.0564      2.00000
     59     -20.9547      2.00000
     60     -20.9386      2.00000
     61       4.0235      2.00000
     62       4.3953      2.00000
     63       4.8562      2.00000
     64       4.9581      2.00000
     65       5.1520      2.00000
     66       5.6978      2.00000
     67       5.7658      2.00000
     68       6.1620      2.00000
     69       6.4989      2.00000
     70       6.5251      2.00000
     71       6.5713      2.00000
     72       6.6356      2.00000
     73       6.6738      2.00000
     74       6.7298      2.00000
     75       6.7708      2.00000
     76       6.8237      2.00000
     77       6.8705      2.00000
     78       6.9094      2.00000
     79       6.9787      2.00000
     80       6.9953      2.00000
     81       7.2691      2.00000
     82       7.3078      2.00000
     83       7.4032      2.00000
     84       7.4487      2.00000
     85       7.4849      2.00000
     86       7.5001      2.00000
     87       7.5468      2.00000
     88       7.5659      2.00000
     89       7.5920      2.00000
     90       7.6231      2.00000
     91       7.6660      2.00000
     92       7.6822      2.00000
     93       7.7264      2.00000
     94       7.7333      2.00000
     95       7.7662      2.00000
     96       7.7996      2.00000
     97       7.8265      2.00000
     98       7.8391      2.00000
     99       7.8620      2.00000
    100       7.8981      2.00000
    101       7.9474      2.00000
    102       7.9795      2.00000
    103       8.0152      2.00000
    104       8.0615      2.00000
    105       8.1116      2.00000
    106       8.1928      2.00000
    107       8.2364      2.00000
    108       8.6014      2.00000
    109      11.1127      0.00000
    110      11.2097      0.00000
    111      11.3310      0.00000
    112      11.4056      0.00000
    113      11.4582      0.00000
    114      11.4965      0.00000
    115      11.5382      0.00000
    116      11.7075      0.00000
    117      11.7871      0.00000
    118      11.8849      0.00000
    119      11.9100      0.00000
    120      11.9270      0.00000
    121      11.9579      0.00000
    122      11.9902      0.00000
    123      12.1130      0.00000
    124      12.2050      0.00000

 k-point    63 :       0.4000   -0.4000    0.4000
  band No.  band energies     occupation 
      1     -64.2953      2.00000
      2     -64.2773      2.00000
      3     -64.2307      2.00000
      4     -51.4032      2.00000
      5     -51.3742      2.00000
      6     -51.2244      2.00000
      7     -51.1962      2.00000
      8     -51.1755      2.00000
      9     -45.1871      2.00000
     10     -45.1608      2.00000
     11     -45.1389      2.00000
     12     -45.0554      2.00000
     13     -28.5527      2.00000
     14     -28.5215      2.00000
     15     -28.5134      2.00000
     16     -28.5071      2.00000
     17     -28.4967      2.00000
     18     -28.4773      2.00000
     19     -28.4727      2.00000
     20     -28.4520      2.00000
     21     -28.4425      2.00000
     22     -25.6527      2.00000
     23     -25.6281      2.00000
     24     -25.5950      2.00000
     25     -25.5650      2.00000
     26     -25.5296      2.00000
     27     -25.4959      2.00000
     28     -25.4180      2.00000
     29     -25.3927      2.00000
     30     -25.3480      2.00000
     31     -25.3309      2.00000
     32     -25.2783      2.00000
     33     -25.2664      2.00000
     34     -25.2390      2.00000
     35     -25.2113      2.00000
     36     -25.1667      2.00000
     37     -24.8479      2.00000
     38     -24.7213      2.00000
     39     -24.6088      2.00000
     40     -24.5917      2.00000
     41     -24.5825      2.00000
     42     -24.5583      2.00000
     43     -24.5329      2.00000
     44     -24.5179      2.00000
     45     -24.4963      2.00000
     46     -24.4785      2.00000
     47     -24.3612      2.00000
     48     -24.2455      2.00000
     49     -21.5047      2.00000
     50     -21.4890      2.00000
     51     -21.3519      2.00000
     52     -21.2711      2.00000
     53     -21.2568      2.00000
     54     -21.2479      2.00000
     55     -21.2254      2.00000
     56     -21.2188      2.00000
     57     -21.1893      2.00000
     58     -21.0576      2.00000
     59     -20.9526      2.00000
     60     -20.9400      2.00000
     61       3.9845      2.00000
     62       4.4880      2.00000
     63       4.8070      2.00000
     64       4.9442      2.00000
     65       5.2557      2.00000
     66       5.5563      2.00000
     67       5.7133      2.00000
     68       6.2553      2.00000
     69       6.5070      2.00000
     70       6.5438      2.00000
     71       6.5695      2.00000
     72       6.6236      2.00000
     73       6.6589      2.00000
     74       6.7127      2.00000
     75       6.7893      2.00000
     76       6.8295      2.00000
     77       6.8676      2.00000
     78       6.9277      2.00000
     79       6.9638      2.00000
     80       6.9905      2.00000
     81       7.2695      2.00000
     82       7.3105      2.00000
     83       7.4027      2.00000
     84       7.4496      2.00000
     85       7.4882      2.00000
     86       7.5091      2.00000
     87       7.5427      2.00000
     88       7.5527      2.00000
     89       7.6010      2.00000
     90       7.6269      2.00000
     91       7.6711      2.00000
     92       7.6939      2.00000
     93       7.7221      2.00000
     94       7.7349      2.00000
     95       7.7639      2.00000
     96       7.7845      2.00000
     97       7.8278      2.00000
     98       7.8370      2.00000
     99       7.8709      2.00000
    100       7.8977      2.00000
    101       7.9453      2.00000
    102       8.0015      2.00000
    103       8.0178      2.00000
    104       8.0554      2.00000
    105       8.1069      2.00000
    106       8.1884      2.00000
    107       8.2258      2.00000
    108       8.5916      2.00000
    109      11.1130      0.00000
    110      11.2099      0.00000
    111      11.3310      0.00000
    112      11.4038      0.00000
    113      11.4603      0.00000
    114      11.4998      0.00000
    115      11.5431      0.00000
    116      11.6965      0.00000
    117      11.7699      0.00000
    118      11.8442      0.00000
    119      11.9247      0.00000
    120      11.9374      0.00000
    121      11.9709      0.00000
    122      12.0129      0.00000
    123      12.1312      0.00000
    124      12.1969      0.00000


--------------------------------------------------------------------------------------------------------


 soft charge-density along one line, spin component           1
         0         1         2         3         4         5         6         7         8         9
 total charge-density along one line
 
 pseudopotential strength for first ion, spin component:           1
  5.766 -20.394  -0.002  -0.002   0.000   0.004   0.004  -0.001
-20.394   9.301  -0.002  -0.003   0.000   0.000   0.000  -0.000
 -0.002  -0.002  -9.841  -0.005  -0.001   6.095   0.005   0.001
 -0.002  -0.003  -0.005  -9.837   0.001   0.005   6.091  -0.001
  0.000   0.000  -0.001   0.001  -9.842   0.001  -0.001   6.095
  0.004   0.000   6.095   0.005   0.001   7.884  -0.003  -0.000
  0.004   0.000   0.005   6.091  -0.001  -0.003   7.886   0.001
 -0.001  -0.000   0.001  -0.001   6.095  -0.000   0.001   7.884
 -0.000  -0.000   0.000   0.000  -0.002  -0.000  -0.000   0.002
 -0.003  -0.001  -0.002  -0.002   0.000   0.003   0.002  -0.000
  0.002   0.001   0.001  -0.002  -0.000  -0.001   0.002   0.000
  0.001   0.000   0.000   0.000  -0.002  -0.000  -0.000   0.003
 -0.000  -0.000   0.001   0.000   0.000  -0.001  -0.000  -0.000
 -0.001  -0.000   0.000   0.000  -0.002  -0.000  -0.000   0.003
 -0.004  -0.002  -0.003  -0.002   0.000   0.003   0.003  -0.000
  0.002   0.001   0.001  -0.002  -0.000  -0.001   0.003   0.000
  0.001   0.000   0.000   0.000  -0.002  -0.000  -0.000   0.003
 -0.000  -0.000   0.001   0.000   0.000  -0.002  -0.000  -0.000
 total augmentation occupancy for first ion, spin component:           1
  1.995  -0.046  -0.000  -0.000   0.000   0.000   0.000   0.000  -0.001  -0.010   0.003   0.001  -0.000   0.001   0.009  -0.003
 -0.046   1.340   0.001   0.000   0.000   0.002   0.003  -0.000  -0.011  -0.043   0.031   0.011   0.001   0.009   0.024  -0.011
 -0.000   0.001   1.996   0.000  -0.000  -0.029  -0.001   0.000   0.002   0.003   0.002  -0.000   0.003  -0.001  -0.002  -0.001
 -0.000   0.000   0.000   1.996   0.000  -0.001  -0.030  -0.000  -0.000   0.006  -0.006   0.002  -0.000   0.000  -0.004   0.004
  0.000   0.000  -0.000   0.000   1.996   0.000  -0.000  -0.029   0.006  -0.000  -0.001   0.004   0.001  -0.004   0.000   0.000
  0.000   0.002  -0.029  -0.001   0.000   0.067   0.001  -0.000  -0.004   0.003  -0.005   0.003  -0.007   0.003  -0.000   0.002
  0.000   0.003  -0.001  -0.030  -0.000   0.001   0.070   0.000   0.003  -0.005   0.011  -0.005   0.000  -0.002   0.005  -0.005
  0.000  -0.000   0.000  -0.000  -0.029  -0.000   0.000   0.067  -0.005   0.002   0.000   0.003  -0.001   0.005  -0.002  -0.000
 -0.001  -0.011   0.002  -0.000   0.006  -0.004   0.003  -0.005   3.297   0.043   0.006  -0.107   0.000  -1.374  -0.024  -0.003
 -0.010  -0.043   0.003   0.006  -0.000   0.003  -0.005   0.002   0.043   3.309  -0.040  -0.042   0.064  -0.024  -1.384   0.018
  0.003   0.031   0.002  -0.006  -0.001  -0.005   0.011   0.000   0.006  -0.040   2.726   0.003   0.000  -0.002   0.018  -1.237
  0.001   0.011  -0.000   0.002   0.004   0.003  -0.005   0.003  -0.107  -0.042   0.003   3.299   0.004   0.048   0.024  -0.001
 -0.000   0.001   0.003  -0.000   0.001  -0.007   0.000  -0.001   0.000   0.064   0.000   0.004   2.661  -0.000  -0.028  -0.000
  0.001   0.009  -0.001   0.000  -0.004   0.003  -0.002   0.005  -1.374  -0.024  -0.002   0.048  -0.000   0.584   0.013   0.001
  0.009   0.024  -0.002  -0.004   0.000  -0.000   0.005  -0.002  -0.024  -1.384   0.018   0.024  -0.028   0.013   0.590  -0.008
 -0.003  -0.011  -0.001   0.004   0.000   0.002  -0.005  -0.000  -0.003   0.018  -1.237  -0.001  -0.000   0.001  -0.008   0.569
 -0.001  -0.009   0.000  -0.001  -0.002  -0.002   0.003  -0.000   0.048   0.024  -0.001  -1.380  -0.002  -0.023  -0.013   0.001
  0.000  -0.000  -0.002   0.000  -0.001   0.003  -0.000   0.000  -0.000  -0.029  -0.000  -0.002  -1.213   0.000   0.013   0.000


------------------------ aborting loop because EDIFF is reached ----------------------------------------


    CHARGE:  cpu time      0.0833: real time      0.0837
    FORLOC:  cpu time      0.0005: real time      0.0005
    FORNL :  cpu time      0.7871: real time      0.7896
    STRESS:  cpu time      0.9561: real time      0.9592
    FORCOR:  cpu time      0.0046: real time      0.0046
    FORHAR:  cpu time      0.0014: real time      0.0014
    MIXING:  cpu time      0.0008: real time      0.0008
    OFIELD:  cpu time      0.0000: real time      0.0000

  FORCE on cell =-STRESS in cart. coord.  units (eV):
  Direction    XX          YY          ZZ          XY          YZ          ZX
  --------------------------------------------------------------------------------------
  Alpha Z  1798.76847  1798.76847  1798.76847
  Ewald   -7187.84260 -7210.12008 -7209.58298    -8.43073    16.86146    -4.21537
  Hartree  1263.47015  1243.68359  1242.40133    -7.45030    15.08872    -4.25980
  E(xc)    -956.09130  -956.07786  -956.07000     0.00326    -0.01454     0.01527
  Local    1607.22521  1648.79351  1649.86434    15.77833   -31.55056     8.25396
  n-local  -380.91017  -379.51933  -382.11145    -0.19936     0.21704     0.05224
  augment   528.69707   528.60865   528.76544     0.06372    -0.07882    -0.00703
  Kinetic  3300.79662  3299.72508  3301.81508     0.15511    -0.49067     0.12101
  Fock        0.00000     0.00000     0.00000     0.00000     0.00000     0.00000
  -------------------------------------------------------------------------------------
  Total     -25.88656   -26.13798   -26.14977    -0.07997     0.03263    -0.03970
  in kB    -145.58186  -146.99578  -147.06211    -0.44976     0.18349    -0.22326
  external pressure =     -146.55 kB  Pullay stress =        0.00 kB


 VOLUME and BASIS-vectors are now :
 -----------------------------------------------------------------------------
  energy-cutoff  :      250.00
  volume of cell :      284.89
      direct lattice vectors                 reciprocal lattice vectors
     6.580000000  0.000000000  0.000000000     0.151975684  0.000000000  0.000000000
     0.000000000  6.580000000  0.000000000     0.000000000  0.151975684  0.000000000
     0.000000000  0.000000000  6.580000000     0.000000000  0.000000000  0.151975684

  length of vectors
     6.580000000  6.580000000  6.580000000     0.151975684  0.151975684  0.151975684


 FORCES acting on ions
    electron-ion (+dipol)            ewald-force                    non-local-force                 convergence-correction
 -----------------------------------------------------------------------------------------------
   0.204E+02 -.376E+00 -.411E+02   -.204E+02 -.102E-12 0.408E+02   0.450E-01 0.882E-01 -.349E-01   0.110E-04 0.262E-04 0.171E-04
   0.412E+02 0.413E+02 0.204E+02   -.408E+02 -.408E+02 -.204E+02   0.831E-01 -.574E-01 -.260E-01   0.297E-04 0.256E-04 0.136E-04
   -.412E+02 0.412E+02 -.204E+02   0.408E+02 -.408E+02 0.204E+02   -.598E-01 -.282E-01 0.277E-01   -.275E-04 0.128E-04 -.160E-04
   0.412E+02 0.412E+02 -.204E+02   -.408E+02 -.408E+02 0.204E+02   0.543E-01 -.348E-01 0.279E-01   0.284E-04 0.178E-04 -.152E-04
   -.220E+02 0.340E+00 -.442E+02   0.220E+02 -.249E-12 0.439E+02   -.296E-01 -.291E-02 -.537E-01   -.106E-04 -.189E-04 0.146E-04
   0.442E+02 -.443E+02 0.220E+02   -.439E+02 0.439E+02 -.220E+02   0.590E-01 -.172E-01 -.399E-01   0.318E-04 -.188E-04 0.163E-04
   -.219E+02 -.294E+00 0.442E+02   0.220E+02 0.231E-12 -.439E+02   -.316E-01 0.976E-03 0.599E-01   -.846E-05 0.225E-04 -.150E-04
   -.219E+02 0.394E+00 0.443E+02   0.220E+02 -.111E-12 -.439E+02   -.332E-01 -.343E-01 0.306E-01   -.106E-04 -.176E-04 -.138E-04
   -.442E+02 -.442E+02 0.220E+02   0.439E+02 0.439E+02 -.220E+02   -.710E-01 -.293E-01 -.419E-01   -.340E-04 -.161E-04 0.164E-04
   -.350E+02 0.350E+02 0.173E+02   0.345E+02 -.345E+02 -.173E+02   -.611E-01 -.162E-01 -.321E-01   -.317E-04 0.176E-04 0.992E-05
   0.173E+02 -.460E+00 0.350E+02   -.173E+02 -.250E-12 -.345E+02   0.259E-01 0.292E-01 0.371E-01   0.105E-04 0.154E-04 -.898E-05
   -.350E+02 -.350E+02 -.173E+02   0.345E+02 0.345E+02 0.173E+02   -.464E-01 0.578E-02 0.302E-01   -.251E-04 -.214E-04 -.116E-04
   0.350E+02 -.350E+02 -.173E+02   -.345E+02 0.345E+02 0.173E+02   0.578E-01 -.661E-02 0.284E-01   0.243E-04 -.248E-04 -.102E-04
   0.220E+02 0.295E+00 -.442E+02   -.220E+02 -.172E-12 0.439E+02   -.743E-02 0.102E+00 -.586E-01   0.190E-04 -.188E-04 0.159E-04
   -.220E+02 -.328E+00 -.443E+02   0.220E+02 0.175E-12 0.439E+02   0.396E-02 -.656E-01 -.497E-01   -.920E-05 0.277E-04 0.168E-04
   0.220E+02 0.264E+00 0.442E+02   -.220E+02 -.230E-12 -.439E+02   -.958E-02 0.110E+00 0.751E-01   0.172E-04 -.199E-04 -.158E-04
 -----------------------------------------------------------------------------------------------
   0.206E-01 -.438E-01 0.197E-01   -.142E-13 -.286E-13 0.000E+00   -.207E-01 0.438E-01 -.197E-01   0.148E-04 0.936E-05 0.140E-04
 
 
 POSITION                                       TOTAL-FORCE (eV/Angst)
 -----------------------------------------------------------------------------------
      4.93500      4.93500      1.64500         0.050808     -0.287683     -0.392353
      0.00000      0.00000      0.00000         0.483856      0.429163      0.027403
      3.29000      0.00000      3.29000        -0.421215      0.354170     -0.021567
      0.00000      0.00000      3.29000         0.433276      0.362268     -0.023167
      1.64500      1.64500      1.64500        -0.014907      0.336601     -0.346173
      0.00000      3.29000      0.00000         0.322978     -0.352137      0.016405
      1.64500      4.93500      4.93500        -0.001096     -0.293256      0.295478
      1.64500      1.64500      4.93500        -0.014071      0.359312      0.351677
      3.29000      3.29000      0.00000        -0.311563     -0.333121      0.016046
      3.29000      0.00000      0.00000        -0.560619      0.504940      0.006424
      4.93500      4.93500      4.93500         0.027368     -0.430457      0.494710
      3.29000      3.29000      3.29000        -0.530421     -0.510312     -0.000550
      0.00000      3.29000      3.29000         0.545600     -0.516788     -0.002603
      4.93500      1.64500      1.64500        -0.003497      0.397365     -0.377563
      1.64500      4.93500      1.64500        -0.000853     -0.394042     -0.404787
      4.93500      1.64500      4.93500        -0.005645      0.373977      0.360621
 -----------------------------------------------------------------------------------
    total drift:                               -0.000020     -0.000005      0.000011


--------------------------------------------------------------------------------------------------------



  FREE ENERGIE OF THE ION-ELECTRON SYSTEM (eV)
  ---------------------------------------------------
  free  energy   TOTEN  =      -182.52004588 eV

  energy  without entropy=     -182.51954541  energy(sigma->0) =     -182.51979564
 


--------------------------------------------------------------------------------------------------------


    POTLOK:  cpu time      0.0061: real time      0.0061


--------------------------------------------------------------------------------------------------------


     LOOP+:  cpu time     89.2395: real time     89.6683
    4ORBIT:  cpu time      0.0000: real time      0.0000

 total amount of memory used by VASP MPI-rank0    47987. kBytes
=======================================================================

   base      :      30000. kBytes
   nonl-proj :       8332. kBytes
   fftplans  :        456. kBytes
   grid      :        919. kBytes
   one-center:         31. kBytes
   wavefun   :       8249. kBytes
 
  
  
 General timing and accounting informations for this job:
 ========================================================
  
                  Total CPU time used (sec):       94.832
                            User time (sec):       93.535
                          System time (sec):        1.297
                         Elapsed time (sec):       96.562
  
                   Maximum memory used (kb):       89944.
                   Average memory used (kb):          N/A
  
                          Minor page faults:        10925
                          Major page faults:            0
                 Voluntary context switches:          253
