 vasp.6.3.1 04May22 (build Jul 26 2022 04:02:40) complex                        
  
 executed on             LinuxIFC date 2023.11.30  13:30:36
 running on   48 total cores
 distrk:  each k-point on   48 cores,    1 groups
 distr:  one band on NCORE=  12 cores,    4 groups


--------------------------------------------------------------------------------------------------------


 INCAR:
   ISTART = 0
   NWRITE = 2
   PREC = Accurate
   ENCUT = 250
   GGA = PE
   NSW = 0
   ISIF = 2
   ISYM = 2
   NBLOCK = 1
   KBLOCK = 1
   IBRION = -1
   NELM = 80
   EDIFF = 1E-08
   EDIFFG = -0.01
   ALGO = Normal
   LDIAG = .TRUE.
   LREAL = .FALSE.
   ISMEAR = 0
   SIGMA = 0.02
   ICHARG = 2
   LPLANE = .TRUE.
   NPAR = 4
   LSCALU = .FALSE.
   NSIM = 4
   LWAVE = .FALSE.
   LCHARG = .FALSE.
   ICORELEVEL = 1

 POTCAR:    PAW_PBE Nb_sv 25May2007               
 POTCAR:    PAW_PBE Mo_sv 02Feb2006               
 POTCAR:    PAW_PBE Ta_pv 07Sep2000               
 POTCAR:    PAW_PBE W_sv 04Sep2015                
 POTCAR:    PAW_PBE Nb_sv 25May2007               
   SHA256 =  0e8fc07c9fcd1164cf2ade22d0399fd28f85e91cd773dfa6cf24839a48c95e24 Nb_sv/POTCAR          
   COPYR  = (c) Copyright 25May2007 Georg Kresse                                                    
   COPYR  = This file is part of the software VASP. Any use, copying, and all other rights are regul
   COPYR  = If you do not have a valid VASP license, you may not use, copy or distribute this file. 
   VRHFIN =Nb: 4p5s4d                                                                               
   LEXCH  = PE                                                                                      
   EATOM  =  1555.1913 eV,  114.3033 Ry                                                             
                                                                                                    
   TITEL  = PAW_PBE Nb_sv 25May2007                                                                 
   LULTRA =        F    use ultrasoft PP ?                                                          
   IUNSCR =        1    unscreen: 0-lin 1-nonlin 2-no                                               
   RPACOR =    1.800    partial core radius                                                         
   POMASS =   92.910; ZVAL   =   13.000    mass and valenz                                          
   RCORE  =    2.400    outmost cutoff radius                                                       
   RWIGS  =    2.400; RWIGS  =    1.270    wigner-seitz radius (au A)                               
   ENMAX  =  293.235; ENMIN  =  219.927 eV                                                          
   ICORE  =        3    local potential                                                             
   LCOR   =        T    correct aug charges                                                         
   LPAW   =        T    paw PP                                                                      
   EAUG   =  455.659                                                                                
   DEXC   =    0.000                                                                                
   RMAX   =    2.456    core radius for proj-oper                                                   
   RAUG   =    1.300    factor for augmentation sphere                                              
   RDEP   =    2.451    radius for radial grids                                                     
   RDEPT  =    1.956    core radius for aug-charge                                                  
                                                                                                    
   Atomic configuration                                                                             
   11 entries                                                                                       
     n  l   j            E        occ.                                                              
     1  0  0.50    -18805.2457   2.0000                                                             
     2  0  0.50     -2630.2869   2.0000                                                             
     2  1  1.50     -2348.4046   6.0000                                                             
     3  0  0.50      -438.8757   2.0000                                                             
     3  1  1.50      -346.7588   6.0000                                                             
     3  2  2.50      -196.2560  10.0000                                                             
     4  0  0.50       -58.3859   2.0000                                                             
     5  0  0.50        -3.9816   1.0000                                                             
     4  1  1.50       -34.5141   6.0000                                                             
     4  2  2.50        -3.0408   4.0000                                                             
     4  3  2.50        -1.3606   0.0000                                                             
   Description                                                                                      
     l       E           TYP  RCUT    TYP  RCUT                                                     
     0    -58.3859094     23  2.200                                                                 
     0     -3.9816262     23  2.200                                                                 
     1    -34.5140738     23  2.200                                                                 
     1     13.6058260     23  2.200                                                                 
     2     -3.0408010     23  2.200                                                                 
     2     -0.1283038     23  2.200                                                                 
     3     -1.3605826     23  2.400                                                                 
  local pseudopotential read in
  partial core-charges read in
  partial kinetic energy density read in
  atomic valenz-charges read in
  non local Contribution for L=           0  read in
    real space projection operators read in
  non local Contribution for L=           0  read in
    real space projection operators read in
  non local Contribution for L=           1  read in
    real space projection operators read in
  non local Contribution for L=           1  read in
    real space projection operators read in
  non local Contribution for L=           2  read in
    real space projection operators read in
  non local Contribution for L=           2  read in
    real space projection operators read in
    PAW grid and wavefunctions read in
 
   number of l-projection  operators is LMAX  =           6
   number of lm-projection operators is LMMAX =          18
 
 POTCAR:    PAW_PBE Mo_sv 02Feb2006               
   SHA256 =  2731df97e41766cc617548c5a8267718fdef1f509ac6bafa01e745abea2bdfaa Mo_sv/POTCAR          
   COPYR  = (c) Copyright 02Feb2006 Georg Kresse                                                    
   COPYR  = This file is part of the software VASP. Any use, copying, and all other rights are regul
   COPYR  = If you do not have a valid VASP license, you may not use, copy or distribute this file. 
   VRHFIN =Mo: 4p5s4d                                                                               
   LEXCH  = PE                                                                                      
   EATOM  =  1862.2866 eV,  136.8742 Ry                                                             
                                                                                                    
   TITEL  = PAW_PBE Mo_sv 02Feb2006                                                                 
   LULTRA =        F    use ultrasoft PP ?                                                          
   IUNSCR =        1    unscreen: 0-lin 1-nonlin 2-no                                               
   RPACOR =    2.200    partial core radius                                                         
   POMASS =   95.940; ZVAL   =   14.000    mass and valenz                                          
   RCORE  =    2.500    outmost cutoff radius                                                       
   RWIGS  =    2.750; RWIGS  =    1.455    wigner-seitz radius (au A)                               
   ENMAX  =  242.676; ENMIN  =  182.007 eV                                                          
   ICORE  =        3    local potential                                                             
   LCOR   =        T    correct aug charges                                                         
   LPAW   =        T    paw PP                                                                      
   EAUG   =  446.014                                                                                
   DEXC   =    0.000                                                                                
   RMAX   =    2.563    core radius for proj-oper                                                   
   RAUG   =    1.300    factor for augmentation sphere                                              
   RDEP   =    2.641    radius for radial grids                                                     
   RDEPT  =    2.031    core radius for aug-charge                                                  
                                                                                                    
   Atomic configuration                                                                             
   11 entries                                                                                       
     n  l   j            E        occ.                                                              
     1  0  0.50    -19819.0341   2.0000                                                             
     2  0  0.50     -2799.0127   2.0000                                                             
     2  1  1.50     -2502.0276   6.0000                                                             
     3  0  0.50      -476.4449   2.0000                                                             
     3  1  1.50      -379.1496   6.0000                                                             
     3  2  2.50      -220.9367  10.0000                                                             
     4  0  0.50       -64.3378   2.0000                                                             
     5  0  0.50        -4.0862   1.0000                                                             
     4  1  1.50       -38.4773   6.0000                                                             
     4  2  2.50        -3.7535   5.0000                                                             
     4  3  2.50        -1.3606   0.0000                                                             
   Description                                                                                      
     l       E           TYP  RCUT    TYP  RCUT                                                     
     0    -64.3377829     23  2.100                                                                 
     0     -4.0861640     23  2.400                                                                 
     1    -38.4772993     23  2.100                                                                 
     1     13.6058260     23  2.100                                                                 
     2     -3.7534941     23  2.400                                                                 
     2     -5.1140767     23  2.400                                                                 
     3     -4.0817478     23  2.500                                                                 
  local pseudopotential read in
  partial core-charges read in
  partial kinetic energy density read in
  atomic valenz-charges read in
  non local Contribution for L=           0  read in
    real space projection operators read in
  non local Contribution for L=           0  read in
    real space projection operators read in
  non local Contribution for L=           1  read in
    real space projection operators read in
  non local Contribution for L=           1  read in
    real space projection operators read in
  non local Contribution for L=           2  read in
    real space projection operators read in
  non local Contribution for L=           2  read in
    real space projection operators read in
    PAW grid and wavefunctions read in
 
   number of l-projection  operators is LMAX  =           6
   number of lm-projection operators is LMMAX =          18
 
 POTCAR:    PAW_PBE Ta_pv 07Sep2000               
   SHA256 =  00d0a14a36c127416459414afb8617d9754996fffa60a2465888e660b20a452f Ta_pv/POTCAR          
   COPYR  = (c) Copyright 07Sep2000 Georg Kresse                                                    
   COPYR  = This file is part of the software VASP. Any use, copying, and all other rights are regul
   COPYR  = If you do not have a valid VASP license, you may not use, copy or distribute this file. 
   VRHFIN =Ta:  5p6s5d                                                                              
   LEXCH  = PE                                                                                      
   EATOM  =  1047.1984 eV,   76.9669 Ry                                                             
                                                                                                    
   TITEL  = PAW_PBE Ta_pv 07Sep2000                                                                 
   LULTRA =        F    use ultrasoft PP ?                                                          
   IUNSCR =        1    unscreen: 0-lin 1-nonlin 2-no                                               
   RPACOR =    2.330    partial core radius                                                         
   POMASS =  180.948; ZVAL   =   11.000    mass and valenz                                          
   RCORE  =    2.500    outmost cutoff radius                                                       
   RWIGS  =    2.840; RWIGS  =    1.503    wigner-seitz radius (au A)                               
   ENMAX  =  223.667; ENMIN  =  167.750 eV                                                          
   RCLOC  =    2.205    cutoff for local pot                                                        
   LCOR   =        T    correct aug charges                                                         
   LPAW   =        T    paw PP                                                                      
   EAUG   =  377.421                                                                                
   DEXC   =    0.000                                                                                
   RMAX   =    2.551    core radius for proj-oper                                                   
   RAUG   =    1.300    factor for augmentation sphere                                              
   RDEP   =    2.526    radius for radial grids                                                     
   RDEPT  =    2.132    core radius for aug-charge                                                  
                                                                                                    
   Atomic configuration                                                                             
   15 entries                                                                                       
     n  l   j            E        occ.                                                              
     1  0  0.50    -67341.2801   2.0000                                                             
     2  0  0.50    -11566.9369   2.0000                                                             
     2  1  1.50    -10134.1175   6.0000                                                             
     3  0  0.50     -2648.5614   2.0000                                                             
     3  1  1.50     -2222.6006   6.0000                                                             
     3  2  2.50     -1726.3114  10.0000                                                             
     4  0  0.50      -538.6957   2.0000                                                             
     4  1  1.50      -399.0125   6.0000                                                             
     4  2  2.50      -220.3955  10.0000                                                             
     4  3  3.50       -23.0371  14.0000                                                             
     5  0  0.50       -71.2900   2.0000                                                             
     5  1  1.50       -37.8224   6.0000                                                             
     5  2  2.50        -2.6455   4.0000                                                             
     6  0  0.50        -4.9623   1.0000                                                             
     5  3  2.50        -1.3606   0.0000                                                             
   Description                                                                                      
     l       E           TYP  RCUT    TYP  RCUT                                                     
     1    -37.8224449     23  2.500                                                                 
     1      1.3605826     23  2.500                                                                 
     2     -2.6454718     23  2.500                                                                 
     2     -0.6258570     23  2.500                                                                 
     0     -4.9622674     23  2.500                                                                 
     0      4.7531427     23  2.500                                                                 
  local pseudopotential read in
  partial core-charges read in
  partial kinetic energy density read in
  atomic valenz-charges read in
  non local Contribution for L=           1  read in
    real space projection operators read in
  non local Contribution for L=           1  read in
    real space projection operators read in
  non local Contribution for L=           2  read in
    real space projection operators read in
  non local Contribution for L=           2  read in
    real space projection operators read in
  non local Contribution for L=           0  read in
    real space projection operators read in
  non local Contribution for L=           0  read in
    real space projection operators read in
    PAW grid and wavefunctions read in
 
   number of l-projection  operators is LMAX  =           6
   number of lm-projection operators is LMMAX =          18
 
 POTCAR:    PAW_PBE W_sv 04Sep2015                
   SHA256 =  931c2d770f65867ef30f3db3421922900fc0890ebac5c3e12f63b6a2064023d7 W_sv/POTCAR           
   COPYR  = (c) Copyright 04Sep2015 Georg Kresse                                                    
   COPYR  = This file is part of the software VASP. Any use, copying, and all other rights are regul
   COPYR  = If you do not have a valid VASP license, you may not use, copy or distribute this file. 
   VRHFIN =W : 5p6s5d                                                                               
   LEXCH  = PE                                                                                      
   EATOM  =  1865.5791 eV,  137.1162 Ry                                                             
                                                                                                    
   TITEL  = PAW_PBE W_sv 04Sep2015                                                                  
   LULTRA =        F    use ultrasoft PP ?                                                          
   IUNSCR =        1    unscreen: 0-lin 1-nonlin 2-no                                               
   RPACOR =    2.330    partial core radius                                                         
   POMASS =  183.850; ZVAL   =   14.000    mass and valenz                                          
   RCORE  =    2.500    outmost cutoff radius                                                       
   RWIGS  =    2.750; RWIGS  =    1.455    wigner-seitz radius (au A)                               
   ENMAX  =  223.057; ENMIN  =  167.293 eV                                                          
   ICORE  =        3    local potential                                                             
   LCOR   =        T    correct aug charges                                                         
   LPAW   =        T    paw PP                                                                      
   EAUG   =  373.438                                                                                
   DEXC   =    0.000                                                                                
   RMAX   =    2.565    core radius for proj-oper                                                   
   RAUG   =    1.300    factor for augmentation sphere                                              
   RDEP   =    2.539    radius for radial grids                                                     
   RDEPT  =    2.126    core radius for aug-charge                                                  
                                                                                                    
   Atomic configuration                                                                             
   15 entries                                                                                       
     n  l   j            E        occ.                                                              
     1  0  0.50    -69465.5834   2.0000                                                             
     2  0  0.50    -11986.2640   2.0000                                                             
     2  1  1.50    -10479.8613   6.0000                                                             
     3  0  0.50     -2759.0756   2.0000                                                             
     3  1  1.50     -2313.1855   6.0000                                                             
     3  2  2.50     -1801.1183  10.0000                                                             
     4  0  0.50      -567.6789   2.0000                                                             
     4  1  1.50      -421.4692   6.0000                                                             
     4  2  2.50      -236.3471  10.0000                                                             
     4  3  3.50       -31.2665  14.0000                                                             
     5  0  0.50       -77.1084   2.0000                                                             
     6  0  0.50        -5.1438   1.0000                                                             
     5  1  1.50       -41.3856   6.0000                                                             
     5  2  2.50        -3.3185   5.0000                                                             
     5  3  2.50        -1.3606   0.0000                                                             
   Description                                                                                      
     l       E           TYP  RCUT    TYP  RCUT                                                     
     0    -77.1084470     23  2.100                                                                 
     0     -5.1437956     23  2.300                                                                 
     1    -41.3855615     23  2.500                                                                 
     1     -2.7211652     23  2.500                                                                 
     2     -3.3185025     23  2.500                                                                 
     2     -1.5965151     23  2.500                                                                 
     3     -1.3605826     23  2.500                                                                 
  local pseudopotential read in
  partial core-charges read in
  partial kinetic energy density read in
  kinetic energy density of atom read in
  atomic valenz-charges read in
  non local Contribution for L=           0  read in
    real space projection operators read in
  non local Contribution for L=           0  read in
    real space projection operators read in
  non local Contribution for L=           1  read in
    real space projection operators read in
  non local Contribution for L=           1  read in
    real space projection operators read in
  non local Contribution for L=           2  read in
    real space projection operators read in
  non local Contribution for L=           2  read in
    real space projection operators read in
    PAW grid and wavefunctions read in
 
   number of l-projection  operators is LMAX  =           6
   number of lm-projection operators is LMMAX =          18
 
 -----------------------------------------------------------------------------
|                                                                             |
|               ----> ADVICE to this user running VASP <----                  |
|                                                                             |
|     You have a (more or less) 'large supercell' and for larger cells it     |
|     might be more efficient to use real-space projection operators.         |
|     Therefore, try LREAL= Auto in the INCAR file.                           |
|     Mind: For very accurate calculation, you might also keep the            |
|     reciprocal projection scheme (i.e. LREAL=.FALSE.).                      |
|                                                                             |
 -----------------------------------------------------------------------------

  PAW_PBE Nb_sv 25May2007               :
 energy of atom  1       EATOM=-1555.1913
 kinetic energy error for atom=    0.2155 (will be added to EATOM!!)
  PAW_PBE Mo_sv 02Feb2006               :
 energy of atom  2       EATOM=-1862.2866
 kinetic energy error for atom=    0.1102 (will be added to EATOM!!)
  PAW_PBE Ta_pv 07Sep2000               :
 energy of atom  3       EATOM=-1047.1984
 kinetic energy error for atom=    0.0394 (will be added to EATOM!!)
  PAW_PBE W_sv 04Sep2015                :
 energy of atom  4       EATOM=-1865.5791
 kinetic energy error for atom=    0.0589 (will be added to EATOM!!)
 
 
 POSCAR: Nb-Mo-Ta-W alloy
  positions in direct lattice
  No initial velocities read in
 exchange correlation table for  LEXCH =        8
   RHO(1)=    0.500       N(1)  =     2000
   RHO(2)=  100.500       N(2)  =     4000
 


--------------------------------------------------------------------------------------------------------


 ion  position               nearest neighbor table
   1  0.000  0.000  0.000-   2 2.85  12 2.85  15 2.85  17 2.85  18 2.85  29 2.85  30 2.85  32 2.85
                            23 3.29  20 3.29  23 3.29  20 3.29
   2  0.875  0.250  0.250-   1 2.85  13 2.85  14 2.85  16 2.85  20 2.85  21 2.85  23 2.85  27 2.85
                            18 3.29
   3  0.250  0.000  0.000-   4 2.85   5 2.85  12 2.85  17 2.85  18 2.85  19 2.85  24 2.85  29 2.85
                            25 3.29  22 3.29  22 3.29  25 3.29
   4  0.375  0.750  0.750-   3 2.85   6 2.85   7 2.85   8 2.85  10 2.85  22 2.85  25 2.85  28 2.85
                            19 3.29  24 3.29  24 3.29  19 3.29
   5  0.375  0.250  0.250-   3 2.85   6 2.85   7 2.85   8 2.85  10 2.85  22 2.85  25 2.85  28 2.85
                            24 3.29  19 3.29  18 3.29  19 3.29  24 3.29
   6  0.500  0.500  0.500-   4 2.85   5 2.85   9 2.85  11 2.85  19 2.85  24 2.85  26 2.85  31 2.85
                            21 3.29
   7  0.500  0.000  0.500-   4 2.85   5 2.85   9 2.85  11 2.85  19 2.85  24 2.85  26 2.85  31 2.85
                            22 3.29
   8  0.500  0.000  0.000-   4 2.85   5 2.85   9 2.85  11 2.85  19 2.85  24 2.85  26 2.85  31 2.85

   9  0.625  0.250  0.750-   6 2.85   7 2.85   8 2.85  13 2.85  14 2.85  21 2.85  27 2.85  28 2.85
                            26 3.29  19 3.29  11 3.29  32 3.29  26 3.29  11 3.29
  10  0.250  0.500  0.500-   4 2.85   5 2.85  12 2.85  17 2.85  18 2.85  19 2.85  24 2.85  29 2.85
                            16 3.29  25 3.29  22 3.29  25 3.29  22 3.29
  11  0.625  0.750  0.750-   6 2.85   7 2.85   8 2.85  13 2.85  14 2.85  21 2.85  27 2.85  28 2.85
                            15 3.29   9 3.29  31 3.29  31 3.29   9 3.29
  12  0.125  0.250  0.750-   1 2.85   3 2.85  10 2.85  16 2.85  20 2.85  22 2.85  23 2.85  25 2.85
                            18 3.29  19 3.29  29 3.29  32 3.29  18 3.29  29 3.29
  13  0.750  0.000  0.000-   2 2.85   9 2.85  11 2.85  15 2.85  26 2.85  30 2.85  31 2.85  32 2.85
                            27 3.29  14 3.29  14 3.29  27 3.29
  14  0.750  0.000  0.500-   2 2.85   9 2.85  11 2.85  15 2.85  26 2.85  30 2.85  31 2.85  32 2.85
                            21 3.29  23 3.29  13 3.29  13 3.29  21 3.29
  15  0.875  0.750  0.750-   1 2.85  13 2.85  14 2.85  16 2.85  20 2.85  21 2.85  23 2.85  27 2.85
                            11 3.29  29 3.29  30 3.29  32 3.29  30 3.29  32 3.29
  16  0.000  0.500  0.500-   2 2.85  12 2.85  15 2.85  17 2.85  18 2.85  29 2.85  30 2.85  32 2.85
                            23 3.29  10 3.29  20 3.29  21 3.29  20 3.29  23 3.29
  17  0.125  0.750  0.250-   1 2.85   3 2.85  10 2.85  16 2.85  20 2.85  22 2.85  23 2.85  25 2.85
                            24 3.29  18 3.29  29 3.29  30 3.29  29 3.29  18 3.29
  18  0.125  0.250  0.250-   1 2.85   3 2.85  10 2.85  16 2.85  20 2.85  22 2.85  23 2.85  25 2.85
                             2 3.29  12 3.29   5 3.29  17 3.29  12 3.29  17 3.29
  19  0.375  0.250  0.750-   3 2.85   6 2.85   7 2.85   8 2.85  10 2.85  22 2.85  25 2.85  28 2.85
                            12 3.29   4 3.29   9 3.29   5 3.29   5 3.29   4 3.29
  20  0.000  0.500  0.000-   2 2.85  12 2.85  15 2.85  17 2.85  18 2.85  29 2.85  30 2.85  32 2.85
                            27 3.29   1 3.29  16 3.29  25 3.29  16 3.29   1 3.29
  21  0.750  0.500  0.500-   2 2.85   9 2.85  11 2.85  15 2.85  26 2.85  30 2.85  31 2.85  32 2.85
                            27 3.29   6 3.29  16 3.29  14 3.29  27 3.29  14 3.29
  22  0.250  0.000  0.500-   4 2.85   5 2.85  12 2.85  17 2.85  18 2.85  19 2.85  24 2.85  29 2.85
                             3 3.29  23 3.29   7 3.29  10 3.29   3 3.29  10 3.29
  23  0.000  0.000  0.500-   2 2.85  12 2.85  15 2.85  17 2.85  18 2.85  29 2.85  30 2.85  32 2.85
                            22 3.29  16 3.29  14 3.29   1 3.29   1 3.29  16 3.29
  24  0.375  0.750  0.250-   3 2.85   6 2.85   7 2.85   8 2.85  10 2.85  22 2.85  25 2.85  28 2.85
                             4 3.29   5 3.29  17 3.29  31 3.29   4 3.29   5 3.29
  25  0.250  0.500  0.000-   4 2.85   5 2.85  12 2.85  17 2.85  18 2.85  19 2.85  24 2.85  29 2.85
                            20 3.29   3 3.29  28 3.29  10 3.29  10 3.29   3 3.29
  26  0.625  0.250  0.250-   6 2.85   7 2.85   8 2.85  13 2.85  14 2.85  21 2.85  27 2.85  28 2.85
                             9 3.29  31 3.29   9 3.29  31 3.29
  27  0.750  0.500  0.000-   2 2.85   9 2.85  11 2.85  15 2.85  26 2.85  30 2.85  31 2.85  32 2.85
                            28 3.29  20 3.29  21 3.29  13 3.29  21 3.29  13 3.29
  28  0.500  0.500  0.000-   4 2.85   5 2.85   9 2.85  11 2.85  19 2.85  24 2.85  26 2.85  31 2.85
                            27 3.29  25 3.29
  29  0.125  0.750  0.750-   1 2.85   3 2.85  10 2.85  16 2.85  20 2.85  22 2.85  23 2.85  25 2.85
                            12 3.29  17 3.29  15 3.29  17 3.29  12 3.29
  30  0.875  0.750  0.250-   1 2.85  13 2.85  14 2.85  16 2.85  20 2.85  21 2.85  23 2.85  27 2.85
                            15 3.29  17 3.29  31 3.29  15 3.29
  31  0.625  0.750  0.250-   6 2.85   7 2.85   8 2.85  13 2.85  14 2.85  21 2.85  27 2.85  28 2.85
                            26 3.29  11 3.29  24 3.29  30 3.29  11 3.29  26 3.29
  32  0.875  0.250  0.750-   1 2.85  13 2.85  14 2.85  16 2.85  20 2.85  21 2.85  23 2.85  27 2.85
                            15 3.29   9 3.29  12 3.29  15 3.29
 
  LATTYP: Found a simple tetragonal cell.
 ALAT       =     6.5800000000
 C/A-ratio  =     2.0000000000
  
  Lattice vectors:
  
 A1 = (   0.0000000000,   6.5800000000,   0.0000000000)
 A2 = (   0.0000000000,   0.0000000000,   6.5800000000)
 A3 = (  13.1600000000,   0.0000000000,   0.0000000000)


Analysis of symmetry for initial positions (statically):
=====================================================================
 Subroutine PRICEL returns:
 Original cell was already a primitive cell.
 

 Routine SETGRP: Setting up the symmetry group for a 
 simple tetragonal supercell.


 Subroutine GETGRP returns: Found  1 space group operations
 (whereof  1 operations were pure point group operations)
 out of a pool of 16 trial point group operations.


The static configuration has the point symmetry C_1 .


Analysis of symmetry for dynamics (positions and initial velocities):
=====================================================================
 Subroutine PRICEL returns:
 Original cell was already a primitive cell.
 

 Routine SETGRP: Setting up the symmetry group for a 
 simple tetragonal supercell.


 Subroutine GETGRP returns: Found  1 space group operations
 (whereof  1 operations were pure point group operations)
 out of a pool of 16 trial point group operations.


The dynamic configuration has the point symmetry C_1 .


 Subroutine INISYM returns: Found  1 space group operations
 (whereof  1 operations are pure point group operations),
 and found     1 'primitive' translations


----------------------------------------------------------------------------------------

                                     Primitive cell                                     

  volume of cell :     569.7806

  direct lattice vectors                    reciprocal lattice vectors
    13.160000000  0.000000000  0.000000000     0.075987842  0.000000000  0.000000000
     0.000000000  6.580000000  0.000000000     0.000000000  0.151975684  0.000000000
     0.000000000  0.000000000  6.580000000     0.000000000  0.000000000  0.151975684

  length of vectors
    13.160000000  6.580000000  6.580000000     0.075987842  0.151975684  0.151975684

  position of ions in fractional coordinates (direct lattice)
     0.000000000  0.000000000  0.000000000
     0.875000000  0.250000000  0.250000000
     0.250000000  0.000000000  0.000000000
     0.375000000  0.750000000  0.750000000
     0.375000000  0.250000000  0.250000000
     0.500000000  0.500000000  0.500000000
     0.500000000  0.000000000  0.500000000
     0.500000000  0.000000000  0.000000000
     0.625000000  0.250000000  0.750000000
     0.250000000  0.500000000  0.500000000
     0.625000000  0.750000000  0.750000000
     0.125000000  0.250000000  0.750000000
     0.750000000  0.000000000  0.000000000
     0.750000000  0.000000000  0.500000000
     0.875000000  0.750000000  0.750000000
     0.000000000  0.500000000  0.500000000
     0.125000000  0.750000000  0.250000000
     0.125000000  0.250000000  0.250000000
     0.375000000  0.250000000  0.750000000
     0.000000000  0.500000000  0.000000000
     0.750000000  0.500000000  0.500000000
     0.250000000  0.000000000  0.500000000
     0.000000000  0.000000000  0.500000000
     0.375000000  0.750000000  0.250000000
     0.250000000  0.500000000  0.000000000
     0.625000000  0.250000000  0.250000000
     0.750000000  0.500000000  0.000000000
     0.500000000  0.500000000  0.000000000
     0.125000000  0.750000000  0.750000000
     0.875000000  0.750000000  0.250000000
     0.625000000  0.750000000  0.250000000
     0.875000000  0.250000000  0.750000000

  ion indices of the primitive-cell ions
   primitive index   ion index
                 1           1
                 2           2
                 3           3
                 4           4
                 5           5
                 6           6
                 7           7
                 8           8
                 9           9
                10          10
                11          11
                12          12
                13          13
                14          14
                15          15
                16          16
                17          17
                18          18
                19          19
                20          20
                21          21
                22          22
                23          23
                24          24
                25          25
                26          26
                27          27
                28          28
                29          29
                30          30
                31          31
                32          32

----------------------------------------------------------------------------------------

 
 
 KPOINTS: K-Spacing Value to Generate K-Mesh: 0.03

Automatic generation of k-mesh.
 Grid dimensions read from file:
 generate k-points for:    3    5    5

 Generating k-lattice:

  Cartesian coordinates                     Fractional coordinates (reciprocal lattice)
     0.025329281  0.000000000  0.000000000     0.333333333  0.000000000  0.000000000
     0.000000000  0.030395137  0.000000000     0.000000000  0.200000000  0.000000000
     0.000000000  0.000000000  0.030395137     0.000000000  0.000000000  0.200000000

  Length of vectors
     0.025329281  0.030395137  0.030395137

  Shift w.r.t. Gamma in fractional coordinates (k-lattice)
     0.000000000  0.000000000  0.000000000

 
 Subroutine IBZKPT returns following result:
 ===========================================
 
 Found     38 irreducible k-points:
 
 Following reciprocal coordinates:
            Coordinates               Weight
  0.000000  0.000000  0.000000      1.000000
  0.333333  0.000000  0.000000      2.000000
  0.000000  0.200000  0.000000      2.000000
  0.000000  0.000000  0.200000      2.000000
  0.333333  0.200000  0.000000      2.000000
  0.333333  0.000000  0.200000      2.000000
  0.333333 -0.200000  0.000000      2.000000
  0.333333  0.000000 -0.200000      2.000000
  0.000000  0.400000  0.000000      2.000000
  0.000000  0.000000  0.400000      2.000000
  0.333333  0.400000  0.000000      2.000000
  0.333333  0.000000  0.400000      2.000000
  0.333333 -0.400000  0.000000      2.000000
  0.333333  0.000000 -0.400000      2.000000
  0.000000  0.200000  0.200000      2.000000
  0.000000 -0.200000  0.200000      2.000000
  0.333333  0.200000  0.200000      2.000000
  0.333333 -0.200000  0.200000      2.000000
  0.333333 -0.200000 -0.200000      2.000000
  0.333333  0.200000 -0.200000      2.000000
  0.000000  0.400000  0.200000      2.000000
  0.000000 -0.200000  0.400000      2.000000
  0.000000 -0.400000  0.200000      2.000000
  0.000000  0.200000  0.400000      2.000000
  0.333333  0.400000  0.200000      2.000000
  0.333333 -0.200000  0.400000      2.000000
  0.333333 -0.400000 -0.200000      2.000000
  0.333333  0.200000 -0.400000      2.000000
 -0.333333 -0.400000  0.200000      2.000000
 -0.333333  0.200000  0.400000      2.000000
 -0.333333  0.400000 -0.200000      2.000000
 -0.333333 -0.200000 -0.400000      2.000000
  0.000000  0.400000  0.400000      2.000000
  0.000000 -0.400000  0.400000      2.000000
  0.333333  0.400000  0.400000      2.000000
  0.333333 -0.400000  0.400000      2.000000
  0.333333 -0.400000 -0.400000      2.000000
  0.333333  0.400000 -0.400000      2.000000
 
 Following cartesian coordinates:
            Coordinates               Weight
  0.000000  0.000000  0.000000      1.000000
  0.025329  0.000000  0.000000      2.000000
  0.000000  0.030395  0.000000      2.000000
  0.000000  0.000000  0.030395      2.000000
  0.025329  0.030395  0.000000      2.000000
  0.025329  0.000000  0.030395      2.000000
  0.025329 -0.030395  0.000000      2.000000
  0.025329  0.000000 -0.030395      2.000000
  0.000000  0.060790  0.000000      2.000000
  0.000000  0.000000  0.060790      2.000000
  0.025329  0.060790  0.000000      2.000000
  0.025329  0.000000  0.060790      2.000000
  0.025329 -0.060790  0.000000      2.000000
  0.025329  0.000000 -0.060790      2.000000
  0.000000  0.030395  0.030395      2.000000
  0.000000 -0.030395  0.030395      2.000000
  0.025329  0.030395  0.030395      2.000000
  0.025329 -0.030395  0.030395      2.000000
  0.025329 -0.030395 -0.030395      2.000000
  0.025329  0.030395 -0.030395      2.000000
  0.000000  0.060790  0.030395      2.000000
  0.000000 -0.030395  0.060790      2.000000
  0.000000 -0.060790  0.030395      2.000000
  0.000000  0.030395  0.060790      2.000000
  0.025329  0.060790  0.030395      2.000000
  0.025329 -0.030395  0.060790      2.000000
  0.025329 -0.060790 -0.030395      2.000000
  0.025329  0.030395 -0.060790      2.000000
 -0.025329 -0.060790  0.030395      2.000000
 -0.025329  0.030395  0.060790      2.000000
 -0.025329  0.060790 -0.030395      2.000000
 -0.025329 -0.030395 -0.060790      2.000000
  0.000000  0.060790  0.060790      2.000000
  0.000000 -0.060790  0.060790      2.000000
  0.025329  0.060790  0.060790      2.000000
  0.025329 -0.060790  0.060790      2.000000
  0.025329 -0.060790 -0.060790      2.000000
  0.025329  0.060790 -0.060790      2.000000
 


--------------------------------------------------------------------------------------------------------




 Dimension of arrays:
   k-points           NKPTS =     38   k-points in BZ     NKDIM =     38   number of bands    NBANDS=    244
   number of dos      NEDOS =    301   number of ions     NIONS =     32
   non local maximal  LDIM  =      6   non local SUM 2l+1 LMDIM =     18
   total plane-waves  NPLWV =  90720
   max r-space proj   IRMAX =      1   max aug-charges    IRDMAX=   9287
   dimension x,y,z NGX =    70 NGY =   36 NGZ =   36
   dimension x,y,z NGXF=   140 NGYF=   72 NGZF=   72
   support grid    NGXF=   140 NGYF=   72 NGZF=   72
   ions per type =               8   6  11   7
   NGX,Y,Z   is equivalent  to a cutoff of   8.84,  9.10,  9.10 a.u.
   NGXF,Y,Z  is equivalent  to a cutoff of  17.69, 18.19, 18.19 a.u.

 SYSTEM =  unknown system                          
 POSCAR =  Nb-Mo-Ta-W alloy                        

 Startparameter for this run:
   NWRITE =      2    write-flag & timer
   PREC   = accura    normal or accurate (medium, high low for compatibility)
   ISTART =      0    job   : 0-new  1-cont  2-samecut
   ICHARG =      2    charge: 1-file 2-atom 10-const
   ISPIN  =      1    spin polarized calculation?
   LNONCOLLINEAR =      F non collinear calculations
   LSORBIT =      F    spin-orbit coupling
   INIWAV =      1    electr: 0-lowe 1-rand  2-diag
   LASPH  =      F    aspherical Exc in radial PAW
 Electronic Relaxation 1
   ENCUT  =  250.0 eV  18.37 Ry    4.29 a.u.  16.97  8.48  8.48*2*pi/ulx,y,z
   ENINI  =  250.0     initial cutoff
   ENAUG  =  455.7 eV  augmentation charge cutoff
   NELM   =     80;   NELMIN=  2; NELMDL= -5     # of ELM steps 
   EDIFF  = 0.1E-07   stopping-criterion for ELM
   LREAL  =      F    real-space projection
   NLSPLINE    = F    spline interpolate recip. space projectors
   LCOMPAT=      F    compatible to vasp.4.4
   GGA_COMPAT  = T    GGA compatible to vasp.4.4-vasp.4.6
   LMAXPAW     = -100 max onsite density
   LMAXMIX     =    2 max onsite mixed and CHGCAR
   VOSKOWN=      0    Vosko Wilk Nusair interpolation
   ROPT   =    0.00000   0.00000   0.00000   0.00000
 Ionic relaxation
   EDIFFG = -.1E-01   stopping-criterion for IOM
   NSW    =      0    number of steps for IOM
   NBLOCK =      1;   KBLOCK =      1    inner block; outer block 
   IBRION =     -1    ionic relax: 0-MD 1-quasi-New 2-CG
   NFREE  =      0    steps in history (QN), initial steepest desc. (CG)
   ISIF   =      2    stress and relaxation
   IWAVPR =     10    prediction:  0-non 1-charg 2-wave 3-comb
   ISYM   =      2    0-nonsym 1-usesym 2-fastsym
   LCORR  =      T    Harris-Foulkes like correction to forces

   POTIM  = 0.5000    time-step for ionic-motion
   TEIN   =    0.0    initial temperature
   TEBEG  =    0.0;   TEEND  =   0.0 temperature during run
   SMASS  =  -3.00    Nose mass-parameter (am)
   estimated Nose-frequenzy (Omega)   =  0.10E-29 period in steps = 0.13E+47 mass=  -0.396E-26a.u.
   SCALEE = 1.0000    scale energy and forces
   NPACO  =    256;   APACO  = 10.0  distance and # of slots for P.C.
   PSTRESS=    0.0 pullay stress

  Mass of Ions in am
   POMASS =  92.91 95.94180.95183.85
  Ionic Valenz
   ZVAL   =  13.00 14.00 11.00 14.00
  Atomic Wigner-Seitz radii
   RWIGS  =  -1.00 -1.00 -1.00 -1.00
  virtual crystal weights 
   VCA    =   1.00  1.00  1.00  1.00
   NELECT =     407.0000    total number of electrons
   NUPDOWN=      -1.0000    fix difference up-down

 DOS related values:
   EMIN   =  10.00;   EMAX   =-10.00  energy-range for DOS
   EFERMI =   0.00
   ISMEAR =     0;   SIGMA  =   0.02  broadening in eV -4-tet -1-fermi 0-gaus

 Electronic relaxation 2 (details)
   IALGO  =     38    algorithm
   LDIAG  =      T    sub-space diagonalisation (order eigenvalues)
   LSUBROT=      F    optimize rotation matrix (better conditioning)
   TURBO    =      0    0=normal 1=particle mesh
   IRESTART =      0    0=no restart 2=restart with 2 vectors
   NREBOOT  =      0    no. of reboots
   NMIN     =      0    reboot dimension
   EREF     =   0.00    reference energy to select bands
   IMIX   =      4    mixing-type and parameters
     AMIX     =   0.40;   BMIX     =  1.00
     AMIX_MAG =   1.60;   BMIX_MAG =  1.00
     AMIN     =   0.10
     WC   =   100.;   INIMIX=   1;  MIXPRE=   1;  MAXMIX= -45

 Intra band minimization:
   WEIMIN = 0.0000     energy-eigenvalue tresh-hold
   EBREAK =  0.10E-10  absolut break condition
   DEPER  =   0.30     relativ break condition  

   TIME   =   0.40     timestep for ELM

  volume/ion in A,a.u.               =      17.81       120.16
  Fermi-wavevector in a.u.,A,eV,Ry     =   1.463425  2.765472 29.138402  2.141612
  Thomas-Fermi vector in A             =   2.579521
 
 Write flags
   LWAVE        =      F    write WAVECAR
   LDOWNSAMPLE  =      F    k-point downsampling of WAVECAR
   LCHARG       =      F    write CHGCAR
   LVTOT        =      F    write LOCPOT, total local potential
   LVHAR        =      F    write LOCPOT, Hartree potential only
   LELF         =      F    write electronic localiz. function (ELF)
   LORBIT       =      0    0 simple, 1 ext, 2 COOP (PROOUT), +10 PAW based schemes


 Dipole corrections
   LMONO  =      F    monopole corrections only (constant potential shift)
   LDIPOL =      F    correct potential (dipole corrections)
   IDIPOL =      0    1-x, 2-y, 3-z, 4-all directions 
   EPSILON=  1.0000000 bulk dielectric constant

 Core level calculations are selected ICORELEVEL =  1
 Exchange correlation treatment:
   GGA     =    PE    GGA type
   LEXCH   =     8    internal setting for exchange type
   LIBXC   =     F    Libxc                    
   VOSKOWN =     0    Vosko Wilk Nusair interpolation
   LHFCALC =     F    Hartree Fock is set to
   LHFONE  =     F    Hartree Fock one center treatment
   AEXX    =    0.0000 exact exchange contribution

 Linear response parameters
   LEPSILON=     F    determine dielectric tensor
   LRPA    =     F    only Hartree local field effects (RPA)
   LNABLA  =     F    use nabla operator in PAW spheres
   LVEL    =     F    velocity operator in full k-point grid
   CSHIFT  =0.1000    complex shift for real part using Kramers Kronig
   OMEGAMAX=  -1.0    maximum frequency
   DEG_THRESHOLD= 0.2000000E-02 threshold for treating states as degnerate
   RTIME   =   -0.100 relaxation time in fs
  (WPLASMAI=    0.000 imaginary part of plasma frequency in eV, 0.658/RTIME)
   DFIELD  = 0.0000000 0.0000000 0.0000000 field for delta impulse in time
 
  Optional k-point grid parameters
   LKPOINTS_OPT  =     F    use optional k-point grid
   KPOINTS_OPT_MODE=     1    mode for optional k-point grid
 
 Orbital magnetization related:
   ORBITALMAG=     F  switch on orbital magnetization
   LCHIMAG   =     F  perturbation theory with respect to B field
   DQ        =  0.001000  dq finite difference perturbation B field
   LLRAUG    =     F  two centre corrections for induced B field



--------------------------------------------------------------------------------------------------------


 Static calculation
 charge density and potential will be updated during run
 non-spin polarized calculation
 Variant of blocked Davidson
 Davidson routine will perform the subspace rotation
 perform sub-space diagonalisation
    after iterative eigenvector-optimisation
 modified Broyden-mixing scheme, WC =      100.0
 initial mixing is a Kerker type mixing with AMIX =  0.4000 and BMIX =      1.0000
 Hartree-type preconditioning will be used
 using additional bands           40
 reciprocal scheme for non local part
 use partial core corrections
 calculate Harris-corrections to forces 
   (improved forces if not selfconsistent)
 use gradient corrections 
 use of overlap-Matrix (Vanderbilt PP)
 Gauss-broadening in eV      SIGMA  =   0.02


--------------------------------------------------------------------------------------------------------


  energy-cutoff  :      250.00
  volume of cell :      569.78
      direct lattice vectors                 reciprocal lattice vectors
    13.160000000  0.000000000  0.000000000     0.075987842  0.000000000  0.000000000
     0.000000000  6.580000000  0.000000000     0.000000000  0.151975684  0.000000000
     0.000000000  0.000000000  6.580000000     0.000000000  0.000000000  0.151975684

  length of vectors
    13.160000000  6.580000000  6.580000000     0.075987842  0.151975684  0.151975684


 
 k-points in units of 2pi/SCALE and weight: K-Spacing Value to Generate K-Mesh: 0.03
   0.00000000  0.00000000  0.00000000       0.013
   0.02532928  0.00000000  0.00000000       0.027
   0.00000000  0.03039514  0.00000000       0.027
   0.00000000  0.00000000  0.03039514       0.027
   0.02532928  0.03039514  0.00000000       0.027
   0.02532928  0.00000000  0.03039514       0.027
   0.02532928 -0.03039514  0.00000000       0.027
   0.02532928  0.00000000 -0.03039514       0.027
   0.00000000  0.06079027  0.00000000       0.027
   0.00000000  0.00000000  0.06079027       0.027
   0.02532928  0.06079027  0.00000000       0.027
   0.02532928  0.00000000  0.06079027       0.027
   0.02532928 -0.06079027  0.00000000       0.027
   0.02532928  0.00000000 -0.06079027       0.027
   0.00000000  0.03039514  0.03039514       0.027
   0.00000000 -0.03039514  0.03039514       0.027
   0.02532928  0.03039514  0.03039514       0.027
   0.02532928 -0.03039514  0.03039514       0.027
   0.02532928 -0.03039514 -0.03039514       0.027
   0.02532928  0.03039514 -0.03039514       0.027
   0.00000000  0.06079027  0.03039514       0.027
   0.00000000 -0.03039514  0.06079027       0.027
   0.00000000 -0.06079027  0.03039514       0.027
   0.00000000  0.03039514  0.06079027       0.027
   0.02532928  0.06079027  0.03039514       0.027
   0.02532928 -0.03039514  0.06079027       0.027
   0.02532928 -0.06079027 -0.03039514       0.027
   0.02532928  0.03039514 -0.06079027       0.027
  -0.02532928 -0.06079027  0.03039514       0.027
  -0.02532928  0.03039514  0.06079027       0.027
  -0.02532928  0.06079027 -0.03039514       0.027
  -0.02532928 -0.03039514 -0.06079027       0.027
   0.00000000  0.06079027  0.06079027       0.027
   0.00000000 -0.06079027  0.06079027       0.027
   0.02532928  0.06079027  0.06079027       0.027
   0.02532928 -0.06079027  0.06079027       0.027
   0.02532928 -0.06079027 -0.06079027       0.027
   0.02532928  0.06079027 -0.06079027       0.027
 
 k-points in reciprocal lattice and weights: K-Spacing Value to Generate K-Mesh: 0.03
   0.00000000  0.00000000  0.00000000       0.013
   0.33333333  0.00000000  0.00000000       0.027
   0.00000000  0.20000000  0.00000000       0.027
   0.00000000  0.00000000  0.20000000       0.027
   0.33333333  0.20000000  0.00000000       0.027
   0.33333333  0.00000000  0.20000000       0.027
   0.33333333 -0.20000000  0.00000000       0.027
   0.33333333  0.00000000 -0.20000000       0.027
   0.00000000  0.40000000  0.00000000       0.027
   0.00000000  0.00000000  0.40000000       0.027
   0.33333333  0.40000000  0.00000000       0.027
   0.33333333  0.00000000  0.40000000       0.027
   0.33333333 -0.40000000  0.00000000       0.027
   0.33333333  0.00000000 -0.40000000       0.027
   0.00000000  0.20000000  0.20000000       0.027
   0.00000000 -0.20000000  0.20000000       0.027
   0.33333333  0.20000000  0.20000000       0.027
   0.33333333 -0.20000000  0.20000000       0.027
   0.33333333 -0.20000000 -0.20000000       0.027
   0.33333333  0.20000000 -0.20000000       0.027
   0.00000000  0.40000000  0.20000000       0.027
   0.00000000 -0.20000000  0.40000000       0.027
   0.00000000 -0.40000000  0.20000000       0.027
   0.00000000  0.20000000  0.40000000       0.027
   0.33333333  0.40000000  0.20000000       0.027
   0.33333333 -0.20000000  0.40000000       0.027
   0.33333333 -0.40000000 -0.20000000       0.027
   0.33333333  0.20000000 -0.40000000       0.027
  -0.33333333 -0.40000000  0.20000000       0.027
  -0.33333333  0.20000000  0.40000000       0.027
  -0.33333333  0.40000000 -0.20000000       0.027
  -0.33333333 -0.20000000 -0.40000000       0.027
   0.00000000  0.40000000  0.40000000       0.027
   0.00000000 -0.40000000  0.40000000       0.027
   0.33333333  0.40000000  0.40000000       0.027
   0.33333333 -0.40000000  0.40000000       0.027
   0.33333333 -0.40000000 -0.40000000       0.027
   0.33333333  0.40000000 -0.40000000       0.027
 
 position of ions in fractional coordinates (direct lattice) 
   0.00000000  0.00000000  0.00000000
   0.87500000  0.25000000  0.25000000
   0.25000000  0.00000000  0.00000000
   0.37500000  0.75000000  0.75000000
   0.37500000  0.25000000  0.25000000
   0.50000000  0.50000000  0.50000000
   0.50000000  0.00000000  0.50000000
   0.50000000  0.00000000  0.00000000
   0.62500000  0.25000000  0.75000000
   0.25000000  0.50000000  0.50000000
   0.62500000  0.75000000  0.75000000
   0.12500000  0.25000000  0.75000000
   0.75000000  0.00000000  0.00000000
   0.75000000  0.00000000  0.50000000
   0.87500000  0.75000000  0.75000000
   0.00000000  0.50000000  0.50000000
   0.12500000  0.75000000  0.25000000
   0.12500000  0.25000000  0.25000000
   0.37500000  0.25000000  0.75000000
   0.00000000  0.50000000  0.00000000
   0.75000000  0.50000000  0.50000000
   0.25000000  0.00000000  0.50000000
   0.00000000  0.00000000  0.50000000
   0.37500000  0.75000000  0.25000000
   0.25000000  0.50000000  0.00000000
   0.62500000  0.25000000  0.25000000
   0.75000000  0.50000000  0.00000000
   0.50000000  0.50000000  0.00000000
   0.12500000  0.75000000  0.75000000
   0.87500000  0.75000000  0.25000000
   0.62500000  0.75000000  0.25000000
   0.87500000  0.25000000  0.75000000
 
 position of ions in cartesian coordinates  (Angst):
   0.00000000  0.00000000  0.00000000
  11.51500000  1.64500000  1.64500000
   3.29000000  0.00000000  0.00000000
   4.93500000  4.93500000  4.93500000
   4.93500000  1.64500000  1.64500000
   6.58000000  3.29000000  3.29000000
   6.58000000  0.00000000  3.29000000
   6.58000000  0.00000000  0.00000000
   8.22500000  1.64500000  4.93500000
   3.29000000  3.29000000  3.29000000
   8.22500000  4.93500000  4.93500000
   1.64500000  1.64500000  4.93500000
   9.87000000  0.00000000  0.00000000
   9.87000000  0.00000000  3.29000000
  11.51500000  4.93500000  4.93500000
   0.00000000  3.29000000  3.29000000
   1.64500000  4.93500000  1.64500000
   1.64500000  1.64500000  1.64500000
   4.93500000  1.64500000  4.93500000
   0.00000000  3.29000000  0.00000000
   9.87000000  3.29000000  3.29000000
   3.29000000  0.00000000  3.29000000
   0.00000000  0.00000000  3.29000000
   4.93500000  4.93500000  1.64500000
   3.29000000  3.29000000  0.00000000
   8.22500000  1.64500000  1.64500000
   9.87000000  3.29000000  0.00000000
   6.58000000  3.29000000  0.00000000
   1.64500000  4.93500000  4.93500000
  11.51500000  4.93500000  1.64500000
   8.22500000  4.93500000  1.64500000
  11.51500000  1.64500000  4.93500000
 


--------------------------------------------------------------------------------------------------------


 k-point   1 :   0.0000 0.0000 0.0000  plane waves:    5077
 k-point   2 :   0.3333 0.0000 0.0000  plane waves:    5118
 k-point   3 :   0.0000 0.2000 0.0000  plane waves:    5099
 k-point   4 :   0.0000 0.0000 0.2000  plane waves:    5099
 k-point   5 :   0.3333 0.2000 0.0000  plane waves:    5140
 k-point   6 :   0.3333 0.0000 0.2000  plane waves:    5140
 k-point   7 :   0.3333-0.2000 0.0000  plane waves:    5140
 k-point   8 :   0.3333 0.0000-0.2000  plane waves:    5140
 k-point   9 :   0.0000 0.4000 0.0000  plane waves:    5119
 k-point  10 :   0.0000 0.0000 0.4000  plane waves:    5119
 k-point  11 :   0.3333 0.4000 0.0000  plane waves:    5127
 k-point  12 :   0.3333 0.0000 0.4000  plane waves:    5127
 k-point  13 :   0.3333-0.4000 0.0000  plane waves:    5127
 k-point  14 :   0.3333 0.0000-0.4000  plane waves:    5127
 k-point  15 :   0.0000 0.2000 0.2000  plane waves:    5124
 k-point  16 :   0.0000-0.2000 0.2000  plane waves:    5124
 k-point  17 :   0.3333 0.2000 0.2000  plane waves:    5117
 k-point  18 :   0.3333-0.2000 0.2000  plane waves:    5117
 k-point  19 :   0.3333-0.2000-0.2000  plane waves:    5117
 k-point  20 :   0.3333 0.2000-0.2000  plane waves:    5117
 k-point  21 :   0.0000 0.4000 0.2000  plane waves:    5118
 k-point  22 :   0.0000-0.2000 0.4000  plane waves:    5118
 k-point  23 :   0.0000-0.4000 0.2000  plane waves:    5118
 k-point  24 :   0.0000 0.2000 0.4000  plane waves:    5118
 k-point  25 :   0.3333 0.4000 0.2000  plane waves:    5105
 k-point  26 :   0.3333-0.2000 0.4000  plane waves:    5105
 k-point  27 :   0.3333-0.4000-0.2000  plane waves:    5105
 k-point  28 :   0.3333 0.2000-0.4000  plane waves:    5105
 k-point  29 :  -0.3333-0.4000 0.2000  plane waves:    5105
 k-point  30 :  -0.3333 0.2000 0.4000  plane waves:    5105
 k-point  31 :  -0.3333 0.4000-0.2000  plane waves:    5105
 k-point  32 :  -0.3333-0.2000-0.4000  plane waves:    5105
 k-point  33 :   0.0000 0.4000 0.4000  plane waves:    5098
 k-point  34 :   0.0000-0.4000 0.4000  plane waves:    5098
 k-point  35 :   0.3333 0.4000 0.4000  plane waves:    5088
 k-point  36 :   0.3333-0.4000 0.4000  plane waves:    5088
 k-point  37 :   0.3333-0.4000-0.4000  plane waves:    5088
 k-point  38 :   0.3333 0.4000-0.4000  plane waves:    5088

 maximum and minimum number of plane-waves per node :       464      388

 maximum number of plane-waves:      5140
 maximum index in each direction: 
   IXMAX=   17   IYMAX=    8   IZMAX=    8
   IXMIN=  -17   IYMIN=   -8   IZMIN=   -8


 parallel 3D FFT for wavefunctions:
    minimum data exchange during FFTs selected (reduces bandwidth)
 parallel 3D FFT for charge:
    minimum data exchange during FFTs selected (reduces bandwidth)


 total amount of memory used by VASP MPI-rank0    60771. kBytes
=======================================================================

   base      :      30000. kBytes
   nonl-proj :       9945. kBytes
   fftplans  :        778. kBytes
   grid      :       1458. kBytes
   one-center:         46. kBytes
   wavefun   :      18544. kBytes
 
     INWAV:  cpu time      0.0000: real time      0.0124
 Broyden mixing: mesh for mixing (old mesh)
   NGX = 33   NGY = 17   NGZ = 17
  (NGX  =140   NGY  = 72   NGZ  = 72)
  gives a total of   9537 points

 initial charge density was supplied:
 charge density of overlapping atoms calculated
 number of electron     407.0000000 magnetization 
 keeping initial charge density in first step


--------------------------------------------------------------------------------------------------------


 Maximum index for augmentation-charges          517 (set IRDMAX)


--------------------------------------------------------------------------------------------------------


 First call to EWALD:  gamma=   0.214
 Maximum number of real-space cells 2x 3x 3
 Maximum number of reciprocal cells 4x 2x 2

    FEWALD:  cpu time      0.0015: real time      0.0015


--------------------------------------- Iteration      1(   1)  ---------------------------------------


    POTLOK:  cpu time      0.0093: real time      0.0133
    SETDIJ:  cpu time      0.0030: real time      0.0031
     EDDAV:  cpu time      6.3358: real time      6.3593
       DOS:  cpu time      0.0057: real time      0.0057
    --------------------------------------------
      LOOP:  cpu time      6.3537: real time      6.3814

 eigenvalue-minimisations  : 18880
 total energy-change (2. order) : 0.3828512E+04  (-0.1574302E+05)
 number of electron     407.0000000 magnetization 
 augmentation part      407.0000000 magnetization 

 Free energy of the ion-electron system (eV)
  ---------------------------------------------------
  alpha Z        PSCENC =      3712.41989052
  Ewald energy   TEWEN  =    -41179.78347308
  -Hartree energ DENC   =     -7782.42663977
  -exchange      EXHF   =         0.00000000
  -V(xc)+E(xc)   XCENC  =      1513.68148802
  PAW double counting   =     38131.96899613   -37529.37385684
  entropy T*S    EENTRO =        -0.00181553
  eigenvalues    EBANDS =     -1228.22721499
  atomic energy  EATOM  =     48190.25468364
  Solvation  Ediel_sol  =         0.00000000
  ---------------------------------------------------
  free energy    TOTEN  =      3828.51205811 eV

  energy without entropy =     3828.51387364  energy(sigma->0) =     3828.51296587


--------------------------------------------------------------------------------------------------------




--------------------------------------- Iteration      1(   2)  ---------------------------------------


     EDDAV:  cpu time      6.4494: real time      6.4739
       DOS:  cpu time      0.0060: real time      0.0060
    --------------------------------------------
      LOOP:  cpu time      6.4554: real time      6.4799

 eigenvalue-minimisations  : 18788
 total energy-change (2. order) :-0.3847982E+04  (-0.3735530E+04)
 number of electron     407.0000000 magnetization 
 augmentation part      407.0000000 magnetization 

 Free energy of the ion-electron system (eV)
  ---------------------------------------------------
  alpha Z        PSCENC =      3712.41989052
  Ewald energy   TEWEN  =    -41179.78347308
  -Hartree energ DENC   =     -7782.42663977
  -exchange      EXHF   =         0.00000000
  -V(xc)+E(xc)   XCENC  =      1513.68148802
  PAW double counting   =     38131.96899613   -37529.37385684
  entropy T*S    EENTRO =        -0.00321875
  eigenvalues    EBANDS =     -5076.20805010
  atomic energy  EATOM  =     48190.25468364
  Solvation  Ediel_sol  =         0.00000000
  ---------------------------------------------------
  free energy    TOTEN  =       -19.47018022 eV

  energy without entropy =      -19.46696148  energy(sigma->0) =      -19.46857085


--------------------------------------------------------------------------------------------------------




--------------------------------------- Iteration      1(   3)  ---------------------------------------


     EDDAV:  cpu time      8.8179: real time      8.8519
       DOS:  cpu time      0.0072: real time      0.0072
    --------------------------------------------
      LOOP:  cpu time      8.8251: real time      8.8592

 eigenvalue-minimisations  : 27848
 total energy-change (2. order) :-0.3426788E+03  (-0.3230991E+03)
 number of electron     407.0000000 magnetization 
 augmentation part      407.0000000 magnetization 

 Free energy of the ion-electron system (eV)
  ---------------------------------------------------
  alpha Z        PSCENC =      3712.41989052
  Ewald energy   TEWEN  =    -41179.78347308
  -Hartree energ DENC   =     -7782.42663977
  -exchange      EXHF   =         0.00000000
  -V(xc)+E(xc)   XCENC  =      1513.68148802
  PAW double counting   =     38131.96899613   -37529.37385684
  entropy T*S    EENTRO =        -0.00451030
  eigenvalues    EBANDS =     -5418.88551891
  atomic energy  EATOM  =     48190.25468364
  Solvation  Ediel_sol  =         0.00000000
  ---------------------------------------------------
  free energy    TOTEN  =      -362.14894058 eV

  energy without entropy =     -362.14443028  energy(sigma->0) =     -362.14668543


--------------------------------------------------------------------------------------------------------




--------------------------------------- Iteration      1(   4)  ---------------------------------------


     EDDAV:  cpu time      8.7355: real time      8.7681
       DOS:  cpu time      0.0055: real time      0.0055
    --------------------------------------------
      LOOP:  cpu time      8.7409: real time      8.7736

 eigenvalue-minimisations  : 28592
 total energy-change (2. order) :-0.2430562E+02  (-0.2334231E+02)
 number of electron     407.0000000 magnetization 
 augmentation part      407.0000000 magnetization 

 Free energy of the ion-electron system (eV)
  ---------------------------------------------------
  alpha Z        PSCENC =      3712.41989052
  Ewald energy   TEWEN  =    -41179.78347308
  -Hartree energ DENC   =     -7782.42663977
  -exchange      EXHF   =         0.00000000
  -V(xc)+E(xc)   XCENC  =      1513.68148802
  PAW double counting   =     38131.96899613   -37529.37385684
  entropy T*S    EENTRO =        -0.00617072
  eigenvalues    EBANDS =     -5443.18947818
  atomic energy  EATOM  =     48190.25468364
  Solvation  Ediel_sol  =         0.00000000
  ---------------------------------------------------
  free energy    TOTEN  =      -386.45456027 eV

  energy without entropy =     -386.44838956  energy(sigma->0) =     -386.45147492


--------------------------------------------------------------------------------------------------------




--------------------------------------- Iteration      1(   5)  ---------------------------------------


     EDDAV:  cpu time      9.0976: real time      9.1840
       DOS:  cpu time      0.0059: real time      0.0060
    CHARGE:  cpu time      0.1858: real time      0.1864
    MIXING:  cpu time      0.0003: real time      0.0003
    --------------------------------------------
      LOOP:  cpu time      9.2896: real time      9.3766

 eigenvalue-minimisations  : 29184
 total energy-change (2. order) :-0.1434284E+01  (-0.1420161E+01)
 number of electron     406.9999766 magnetization 
 augmentation part       87.5880436 magnetization 

 Broyden mixing:
  rms(total) = 0.76678E+01    rms(broyden)= 0.76665E+01
  rms(prec ) = 0.79330E+01
  weight for this iteration     100.00

 Free energy of the ion-electron system (eV)
  ---------------------------------------------------
  alpha Z        PSCENC =      3712.41989052
  Ewald energy   TEWEN  =    -41179.78347308
  -Hartree energ DENC   =     -7782.42663977
  -exchange      EXHF   =         0.00000000
  -V(xc)+E(xc)   XCENC  =      1513.68148802
  PAW double counting   =     38131.96899613   -37529.37385684
  entropy T*S    EENTRO =        -0.00614778
  eigenvalues    EBANDS =     -5444.62378516
  atomic energy  EATOM  =     48190.25468364
  Solvation  Ediel_sol  =         0.00000000
  ---------------------------------------------------
  free energy    TOTEN  =      -387.88884432 eV

  energy without entropy =     -387.88269654  energy(sigma->0) =     -387.88577043


--------------------------------------------------------------------------------------------------------




--------------------------------------- Iteration      1(   6)  ---------------------------------------


    POTLOK:  cpu time      0.0077: real time      0.0078
    SETDIJ:  cpu time      0.0022: real time      0.0022
     EDDAV:  cpu time      7.3364: real time      7.3638
       DOS:  cpu time      0.0071: real time      0.0071
    CHARGE:  cpu time      0.1852: real time      0.1858
    MIXING:  cpu time      0.0004: real time      0.0004
    --------------------------------------------
      LOOP:  cpu time      7.5389: real time      7.5671

 eigenvalue-minimisations  : 23264
 total energy-change (2. order) : 0.8593095E+01  (-0.5655815E+01)
 number of electron     406.9999752 magnetization 
 augmentation part       90.9995226 magnetization 

 Broyden mixing:
  rms(total) = 0.31711E+01    rms(broyden)= 0.31705E+01
  rms(prec ) = 0.47669E+01
  weight for this iteration     100.00

 eigenvalues of (default mixing * dielectric matrix)
  average eigenvalue GAMMA=   1.4610
  1.4610

 Free energy of the ion-electron system (eV)
  ---------------------------------------------------
  alpha Z        PSCENC =      3712.41989052
  Ewald energy   TEWEN  =    -41179.78347308
  -Hartree energ DENC   =     -7345.49213510
  -exchange      EXHF   =         0.00000000
  -V(xc)+E(xc)   XCENC  =      1492.89317212
  PAW double counting   =     46173.39652343   -45623.63093466
  entropy T*S    EENTRO =        -0.00532605
  eigenvalues    EBANDS =     -5799.34814996
  atomic energy  EATOM  =     48190.25468364
  Solvation  Ediel_sol  =         0.00000000
  ---------------------------------------------------
  free energy    TOTEN  =      -379.29574913 eV

  energy without entropy =     -379.29042308  energy(sigma->0) =     -379.29308611


--------------------------------------------------------------------------------------------------------




--------------------------------------- Iteration      1(   7)  ---------------------------------------


    POTLOK:  cpu time      0.0076: real time      0.0077
    SETDIJ:  cpu time      0.0023: real time      0.0023
     EDDAV:  cpu time      8.5683: real time      8.6054
       DOS:  cpu time      0.0073: real time      0.0073
    CHARGE:  cpu time      0.1875: real time      0.1881
    MIXING:  cpu time      0.0004: real time      0.0004
    --------------------------------------------
      LOOP:  cpu time      8.7733: real time      8.8112

 eigenvalue-minimisations  : 27320
 total energy-change (2. order) :-0.2645614E+02  (-0.1265386E+02)
 number of electron     406.9999753 magnetization 
 augmentation part       90.6029624 magnetization 

 Broyden mixing:
  rms(total) = 0.32587E+01    rms(broyden)= 0.32564E+01
  rms(prec ) = 0.91422E+01
  weight for this iteration     100.00

 eigenvalues of (default mixing * dielectric matrix)
  average eigenvalue GAMMA=   0.9655
  1.6258  0.3052

 Free energy of the ion-electron system (eV)
  ---------------------------------------------------
  alpha Z        PSCENC =      3712.41989052
  Ewald energy   TEWEN  =    -41179.78347308
  -Hartree energ DENC   =     -7309.41088905
  -exchange      EXHF   =         0.00000000
  -V(xc)+E(xc)   XCENC  =      1488.35435521
  PAW double counting   =     49943.32257333   -49404.36389508
  entropy T*S    EENTRO =        -0.00687125
  eigenvalues    EBANDS =     -5846.53826082
  atomic energy  EATOM  =     48190.25468364
  Solvation  Ediel_sol  =         0.00000000
  ---------------------------------------------------
  free energy    TOTEN  =      -405.75188658 eV

  energy without entropy =     -405.74501533  energy(sigma->0) =     -405.74845095


--------------------------------------------------------------------------------------------------------




--------------------------------------- Iteration      1(   8)  ---------------------------------------


    POTLOK:  cpu time      0.0076: real time      0.0077
    SETDIJ:  cpu time      0.0023: real time      0.0023
     EDDAV:  cpu time      8.1225: real time      8.1517
       DOS:  cpu time      0.0059: real time      0.0059
    CHARGE:  cpu time      0.1890: real time      0.1897
    MIXING:  cpu time      0.0004: real time      0.0004
    --------------------------------------------
      LOOP:  cpu time      8.3275: real time      8.3577

 eigenvalue-minimisations  : 26232
 total energy-change (2. order) : 0.3554247E+02  (-0.1125887E+02)
 number of electron     406.9999758 magnetization 
 augmentation part       91.3841898 magnetization 

 Broyden mixing:
  rms(total) = 0.11476E+01    rms(broyden)= 0.11439E+01
  rms(prec ) = 0.17937E+01
  weight for this iteration     100.00

 eigenvalues of (default mixing * dielectric matrix)
  average eigenvalue GAMMA=   0.8610
  1.7545  0.5698  0.2586

 Free energy of the ion-electron system (eV)
  ---------------------------------------------------
  alpha Z        PSCENC =      3712.41989052
  Ewald energy   TEWEN  =    -41179.78347308
  -Hartree energ DENC   =     -7174.35358128
  -exchange      EXHF   =         0.00000000
  -V(xc)+E(xc)   XCENC  =      1483.08256961
  PAW double counting   =     53553.78678348   -53030.70955300
  entropy T*S    EENTRO =        -0.00509251
  eigenvalues    EBANDS =     -5924.90164359
  atomic energy  EATOM  =     48190.25468364
  Solvation  Ediel_sol  =         0.00000000
  ---------------------------------------------------
  free energy    TOTEN  =      -370.20941620 eV

  energy without entropy =     -370.20432370  energy(sigma->0) =     -370.20686995


--------------------------------------------------------------------------------------------------------




--------------------------------------- Iteration      1(   9)  ---------------------------------------


    POTLOK:  cpu time      0.0077: real time      0.0078
    SETDIJ:  cpu time      0.0023: real time      0.0023
     EDDAV:  cpu time      7.9568: real time      7.9868
       DOS:  cpu time      0.0070: real time      0.0070
    CHARGE:  cpu time      0.1860: real time      0.1866
    MIXING:  cpu time      0.0004: real time      0.0004
    --------------------------------------------
      LOOP:  cpu time      8.1601: real time      8.1909

 eigenvalue-minimisations  : 25632
 total energy-change (2. order) : 0.1189301E+01  (-0.2309872E+01)
 number of electron     406.9999757 magnetization 
 augmentation part       91.5593036 magnetization 

 Broyden mixing:
  rms(total) = 0.67412E+00    rms(broyden)= 0.67193E+00
  rms(prec ) = 0.80091E+00
  weight for this iteration     100.00

 eigenvalues of (default mixing * dielectric matrix)
  average eigenvalue GAMMA=   0.7772
  1.7335  0.7976  0.3446  0.2331

 Free energy of the ion-electron system (eV)
  ---------------------------------------------------
  alpha Z        PSCENC =      3712.41989052
  Ewald energy   TEWEN  =    -41179.78347308
  -Hartree energ DENC   =     -7131.94000193
  -exchange      EXHF   =         0.00000000
  -V(xc)+E(xc)   XCENC  =      1481.28183970
  PAW double counting   =     54620.24742246   -54103.49314403
  entropy T*S    EENTRO =        -0.00571141
  eigenvalues    EBANDS =     -5958.00162146
  atomic energy  EATOM  =     48190.25468364
  Solvation  Ediel_sol  =         0.00000000
  ---------------------------------------------------
  free energy    TOTEN  =      -369.02011558 eV

  energy without entropy =     -369.01440417  energy(sigma->0) =     -369.01725988


--------------------------------------------------------------------------------------------------------




--------------------------------------- Iteration      1(  10)  ---------------------------------------


    POTLOK:  cpu time      0.0076: real time      0.0078
    SETDIJ:  cpu time      0.0023: real time      0.0023
     EDDAV:  cpu time      7.7582: real time      7.7870
       DOS:  cpu time      0.0057: real time      0.0058
    CHARGE:  cpu time      0.1852: real time      0.1858
    MIXING:  cpu time      0.0004: real time      0.0004
    --------------------------------------------
      LOOP:  cpu time      7.9595: real time      7.9891

 eigenvalue-minimisations  : 24296
 total energy-change (2. order) : 0.2133708E-01  (-0.2685962E+00)
 number of electron     406.9999757 magnetization 
 augmentation part       91.4882091 magnetization 

 Broyden mixing:
  rms(total) = 0.52142E+00    rms(broyden)= 0.52114E+00
  rms(prec ) = 0.59121E+00
  weight for this iteration     100.00

 eigenvalues of (default mixing * dielectric matrix)
  average eigenvalue GAMMA=   0.8650
  1.5232  1.5232  0.2528  0.5541  0.4717

 Free energy of the ion-electron system (eV)
  ---------------------------------------------------
  alpha Z        PSCENC =      3712.41989052
  Ewald energy   TEWEN  =    -41179.78347308
  -Hartree energ DENC   =     -7134.14071405
  -exchange      EXHF   =         0.00000000
  -V(xc)+E(xc)   XCENC  =      1481.42664665
  PAW double counting   =     54811.13291622   -54292.94102419
  entropy T*S    EENTRO =        -0.00652367
  eigenvalues    EBANDS =     -5957.36118055
  atomic energy  EATOM  =     48190.25468364
  Solvation  Ediel_sol  =         0.00000000
  ---------------------------------------------------
  free energy    TOTEN  =      -368.99877850 eV

  energy without entropy =     -368.99225484  energy(sigma->0) =     -368.99551667


--------------------------------------------------------------------------------------------------------




--------------------------------------- Iteration      1(  11)  ---------------------------------------


    POTLOK:  cpu time      0.0077: real time      0.0078
    SETDIJ:  cpu time      0.0023: real time      0.0023
     EDDAV:  cpu time      7.5858: real time      7.6136
       DOS:  cpu time      0.0056: real time      0.0056
    CHARGE:  cpu time      0.1847: real time      0.1853
    MIXING:  cpu time      0.0004: real time      0.0004
    --------------------------------------------
      LOOP:  cpu time      7.7866: real time      7.8151

 eigenvalue-minimisations  : 23936
 total energy-change (2. order) :-0.2817841E-01  (-0.5944652E-01)
 number of electron     406.9999758 magnetization 
 augmentation part       91.4299963 magnetization 

 Broyden mixing:
  rms(total) = 0.37995E+00    rms(broyden)= 0.37982E+00
  rms(prec ) = 0.54908E+00
  weight for this iteration     100.00

 eigenvalues of (default mixing * dielectric matrix)
  average eigenvalue GAMMA=   1.0113
  2.5076  1.7915  0.7176  0.4770  0.2515  0.3225

 Free energy of the ion-electron system (eV)
  ---------------------------------------------------
  alpha Z        PSCENC =      3712.41989052
  Ewald energy   TEWEN  =    -41179.78347308
  -Hartree energ DENC   =     -7140.24778790
  -exchange      EXHF   =         0.00000000
  -V(xc)+E(xc)   XCENC  =      1481.66255208
  PAW double counting   =     54914.46332319   -54393.89733630
  entropy T*S    EENTRO =        -0.00576622
  eigenvalues    EBANDS =     -5953.89304284
  atomic energy  EATOM  =     48190.25468364
  Solvation  Ediel_sol  =         0.00000000
  ---------------------------------------------------
  free energy    TOTEN  =      -369.02695691 eV

  energy without entropy =     -369.02119069  energy(sigma->0) =     -369.02407380


--------------------------------------------------------------------------------------------------------




--------------------------------------- Iteration      1(  12)  ---------------------------------------


    POTLOK:  cpu time      0.0076: real time      0.0078
    SETDIJ:  cpu time      0.0022: real time      0.0022
     EDDAV:  cpu time      8.0329: real time      8.0634
       DOS:  cpu time      0.0058: real time      0.0058
    CHARGE:  cpu time      0.1853: real time      0.1859
    MIXING:  cpu time      0.0005: real time      0.0005
    --------------------------------------------
      LOOP:  cpu time      8.2343: real time      8.2656

 eigenvalue-minimisations  : 24168
 total energy-change (2. order) :-0.4064870E-02  (-0.5119011E-01)
[...]
    119       3.1866      2.00000
    120       3.5305      2.00000
    121       3.6443      2.00000
    122       3.9161      2.00000
    123       4.1346      2.00000
    124       4.2875      2.00000
    125       4.3798      2.00000
    126       4.6533      2.00000
    127       4.8673      2.00000
    128       4.9921      2.00000
    129       5.0880      2.00000
    130       5.1947      2.00000
    131       5.3071      2.00000
    132       5.4664      2.00000
    133       5.5918      2.00000
    134       5.6587      2.00000
    135       5.6991      2.00000
    136       5.7415      2.00000
    137       5.7694      2.00000
    138       5.8259      2.00000
    139       5.8538      2.00000
    140       5.8836      2.00000
    141       5.9014      2.00000
    142       5.9576      2.00000
    143       5.9944      2.00000
    144       6.0286      2.00000
    145       6.0603      2.00000
    146       6.1024      2.00000
    147       6.1225      2.00000
    148       6.1979      2.00000
    149       6.2452      2.00000
    150       6.2584      2.00000
    151       6.3792      2.00000
    152       6.4029      2.00000
    153       6.4420      2.00000
    154       6.5108      2.00000
    155       6.5807      2.00000
    156       6.6506      2.00000
    157       6.6994      2.00000
    158       6.7458      2.00000
    159       6.7980      2.00000
    160       6.8304      2.00000
    161       6.8439      2.00000
    162       6.8740      2.00000
    163       6.8970      2.00000
    164       6.9282      2.00000
    165       6.9998      2.00000
    166       7.0765      2.00000
    167       7.1001      2.00000
    168       7.1115      2.00000
    169       7.1264      2.00000
    170       7.1905      2.00000
    171       7.2101      2.00000
    172       7.2252      2.00000
    173       7.2507      2.00000
    174       7.2680      2.00000
    175       7.3024      2.00000
    176       7.3214      2.00000
    177       7.3356      2.00000
    178       7.3698      2.00000
    179       7.4133      2.00000
    180       7.4274      2.00000
    181       7.4531      2.00000
    182       7.4710      2.00000
    183       7.4859      2.00000
    184       7.5002      2.00000
    185       7.5274      2.00000
    186       7.5561      2.00000
    187       7.5717      2.00000
    188       7.5946      2.00000
    189       7.6318      2.00000
    190       7.6781      2.00000
    191       7.7258      2.00000
    192       7.7347      2.00000
    193       7.7603      2.00000
    194       7.8010      2.00000
    195       7.8256      2.00000
    196       7.8439      2.00000
    197       7.8744      2.00000
    198       7.9128      2.00000
    199       7.9298      2.00000
    200       7.9923      2.00000
    201       8.0176      2.00000
    202       8.0424      2.00000
    203       8.0569      2.00000
    204       8.0758      2.00000
    205       8.0852      2.00000
    206       8.1187      2.00000
    207       8.1593      2.00000
    208       8.1806      2.00000
    209       8.2808      2.00000
    210       8.5073      2.00000
    211       8.6470      1.94377
    212       8.7248      0.00033
    213       9.3898      0.00000
    214      10.2835      0.00000
    215      10.4934      0.00000
    216      10.5380      0.00000
    217      10.5529      0.00000
    218      10.6009      0.00000
    219      10.6348      0.00000
    220      10.6957      0.00000
    221      10.7745      0.00000
    222      10.8284      0.00000
    223      10.9094      0.00000
    224      10.9775      0.00000
    225      11.0103      0.00000
    226      11.0367      0.00000
    227      11.0596      0.00000
    228      11.0922      0.00000
    229      11.1887      0.00000
    230      11.2081      0.00000
    231      11.2377      0.00000
    232      11.2612      0.00000
    233      11.3340      0.00000
    234      11.3742      0.00000
    235      11.4075      0.00000
    236      11.4387      0.00000
    237      11.4692      0.00000
    238      11.4854      0.00000
    239      11.5493      0.00000
    240      11.5897      0.00000
    241      11.6273      0.00000
    242      11.6518      0.00000
    243      11.6668      0.00000
    244      11.7558      0.00000


--------------------------------------------------------------------------------------------------------


 soft charge-density along one line, spin component           1
         0         1         2         3         4         5         6         7         8         9
 total charge-density along one line
 
 pseudopotential strength for first ion, spin component:           1
  5.809 -20.563   0.000  -0.002  -0.000  -0.001   0.004   0.000
-20.563   9.454   0.001  -0.003   0.000  -0.000   0.000  -0.000
  0.000   0.001  -9.932   0.002  -0.000   6.216  -0.002   0.000
 -0.002  -0.003   0.002  -9.932   0.003  -0.002   6.216  -0.003
 -0.000   0.000  -0.000   0.003  -9.932   0.000  -0.003   6.215
 -0.001  -0.000   6.216  -0.002   0.000   7.804   0.002  -0.000
  0.004   0.000  -0.002   6.216  -0.003   0.002   7.805   0.002
  0.000  -0.000   0.000  -0.003   6.215  -0.000   0.002   7.805
 -0.000  -0.000  -0.000   0.000   0.000   0.000  -0.001  -0.000
  0.002   0.001  -0.002   0.000   0.000   0.003  -0.000  -0.001
  0.000  -0.000  -0.000  -0.002   0.000   0.000   0.002  -0.000
  0.002   0.001   0.000   0.000  -0.002  -0.001   0.000   0.002
  0.000   0.000  -0.000   0.000  -0.000   0.000  -0.000   0.000
 -0.000  -0.000  -0.000   0.000   0.001   0.000  -0.001  -0.001
  0.002   0.001  -0.002   0.001   0.000   0.003  -0.001  -0.001
  0.000  -0.000  -0.000  -0.002   0.000   0.000   0.003  -0.000
  0.003   0.001   0.000   0.000  -0.002  -0.001   0.000   0.003
  0.000   0.000  -0.000   0.000  -0.001   0.001  -0.000   0.000
 total augmentation occupancy for first ion, spin component:           1
  1.995  -0.048   0.000   0.000  -0.000   0.000   0.000  -0.000  -0.001   0.008   0.000   0.008   0.001   0.000  -0.006  -0.000
 -0.048   1.320   0.001   0.001  -0.001  -0.001   0.002   0.005   0.003   0.016   0.006   0.035  -0.011  -0.003  -0.001  -0.003
  0.000   0.001   1.996  -0.000   0.000  -0.031   0.001   0.000   0.001   0.005  -0.001  -0.009  -0.002  -0.000  -0.003   0.001
  0.000   0.001  -0.000   1.996  -0.000   0.001  -0.031   0.001  -0.009   0.003  -0.003   0.001   0.000   0.005  -0.002   0.002
 -0.000  -0.001   0.000  -0.000   1.996   0.000   0.001  -0.030   0.003  -0.009   0.001   0.006  -0.001  -0.002   0.005  -0.000
  0.000  -0.001  -0.031   0.001   0.000   0.071  -0.002  -0.000  -0.002  -0.001   0.001   0.014   0.001   0.001   0.002  -0.000
  0.000   0.002   0.001  -0.031   0.001  -0.002   0.071  -0.002   0.014  -0.009   0.010  -0.004  -0.000  -0.008   0.005  -0.004
 -0.000   0.005   0.000   0.001  -0.030  -0.000  -0.002   0.068  -0.009   0.014  -0.003  -0.003   0.006   0.005  -0.008   0.001
 -0.001   0.003   0.001  -0.009   0.003  -0.002   0.014  -0.009   3.426   0.064   0.008   0.001   0.001  -1.458  -0.029  -0.004
  0.008   0.016   0.005   0.003  -0.009  -0.001  -0.009   0.014   0.064   3.409   0.026   0.013  -0.048  -0.029  -1.456  -0.012
  0.000   0.006  -0.001  -0.003   0.001   0.001   0.010  -0.003   0.008   0.026   2.705   0.034   0.002  -0.004  -0.011  -1.230
  0.008   0.035  -0.009   0.001   0.006   0.014  -0.004  -0.003   0.001   0.013   0.034   3.428   0.062   0.012  -0.008  -0.015
  0.001  -0.011  -0.002   0.000  -0.001   0.001  -0.000   0.006   0.001  -0.048   0.002   0.062   2.696   0.000   0.021  -0.002
  0.000  -0.003  -0.000   0.005  -0.002   0.001  -0.008   0.005  -1.458  -0.029  -0.004   0.012   0.000   0.632   0.014   0.002
 -0.006  -0.001  -0.003  -0.002   0.005   0.002   0.005  -0.008  -0.029  -1.456  -0.011  -0.008   0.021   0.014   0.633   0.005
 -0.000  -0.003   0.001   0.002  -0.000  -0.000  -0.004   0.001  -0.004  -0.012  -1.230  -0.015  -0.002   0.002   0.005   0.567
 -0.007  -0.018   0.005  -0.000  -0.004  -0.008   0.001   0.002   0.012  -0.008  -0.015  -1.460  -0.026  -0.010   0.005   0.006
 -0.000   0.005   0.001  -0.000   0.000  -0.001  -0.000  -0.002  -0.000   0.021  -0.002  -0.028  -1.225  -0.000  -0.009   0.002


------------------------ aborting loop because EDIFF is reached ----------------------------------------


    CHARGE:  cpu time      0.1849: real time      0.1855
    FORLOC:  cpu time      0.0014: real time      0.0014
    FORNL :  cpu time      3.7495: real time      3.7658
    STRESS:  cpu time      3.1774: real time      3.1914
    FORCOR:  cpu time      0.0120: real time      0.0121
    FORHAR:  cpu time      0.0029: real time      0.0030
    MIXING:  cpu time      0.0011: real time      0.0011
    OFIELD:  cpu time      0.0000: real time      0.0000

  FORCE on cell =-STRESS in cart. coord.  units (eV):
  Direction    XX          YY          ZZ          XY          YZ          ZX
  --------------------------------------------------------------------------------------
  Alpha Z  3712.41989  3712.41989  3712.41989
  Ewald  -14071.81043-13527.82065-13580.36921     2.45056    19.84438   -20.97599
  Hartree  2039.75767  2576.79341  2528.89070     3.10287    17.61092   -19.35366
  E(xc)   -1852.25926 -1852.32523 -1852.30030    -0.02479    -0.02220     0.02121
  Local    3720.33946  2637.51667  2736.82520    -4.85895   -36.68272    38.75909
  n-local  -802.48688  -804.16667  -804.29773     0.08232    -0.85795     0.21031
  augment  1051.53747  1052.10067  1052.26554    -0.09804    -0.02945     0.28694
  Kinetic  6163.34396  6165.87172  6167.01586    -0.37802     0.14753     0.04670
  Fock        0.00000     0.00000     0.00000     0.00000     0.00000     0.00000
  -------------------------------------------------------------------------------------
  Total     -39.15812   -39.61020   -39.55004     0.27594     0.01048    -1.00541
  in kB    -110.10948  -111.38071  -111.21155     0.77591     0.02947    -2.82714
  external pressure =     -110.90 kB  Pullay stress =        0.00 kB


 VOLUME and BASIS-vectors are now :
 -----------------------------------------------------------------------------
  energy-cutoff  :      250.00
  volume of cell :      569.78
      direct lattice vectors                 reciprocal lattice vectors
    13.160000000  0.000000000  0.000000000     0.075987842  0.000000000  0.000000000
     0.000000000  6.580000000  0.000000000     0.000000000  0.151975684  0.000000000
     0.000000000  0.000000000  6.580000000     0.000000000  0.000000000  0.151975684

  length of vectors
    13.160000000  6.580000000  6.580000000     0.075987842  0.151975684  0.151975684


 FORCES acting on ions
    electron-ion (+dipol)            ewald-force                    non-local-force                 convergence-correction
 -----------------------------------------------------------------------------------------------
   -.153E+03 0.194E+02 -.392E+02   0.153E+03 -.194E+02 0.388E+02   -.261E+00 0.101E+00 0.751E-01   -.377E-04 -.186E-04 -.186E-04
   -.244E+03 -.477E+02 -.487E+02   0.243E+03 0.474E+02 0.485E+02   -.195E+00 -.876E-01 0.116E-02   0.220E-05 0.389E-04 -.558E-04
   0.757E+02 0.979E+00 -.576E+02   -.761E+02 -.102E+01 0.571E+02   0.549E-01 0.733E-01 -.163E-01   0.118E-04 0.225E-05 -.207E-04
   0.184E+03 -.173E+02 0.261E+01   -.184E+03 0.168E+02 -.254E+01   0.447E-01 0.712E-01 -.904E-01   0.798E-04 0.729E-05 0.428E-04
   0.213E+03 0.173E+02 -.259E+01   -.213E+03 -.168E+02 0.254E+01   0.257E+00 -.766E-01 0.658E-01   0.867E-04 -.782E-05 -.413E-04
   0.176E+03 -.102E+01 0.201E+01   -.175E+03 0.102E+01 -.203E+01   -.479E+00 0.520E-02 0.967E-01   0.749E-04 -.103E-04 -.182E-04
   0.216E+03 0.102E+01 0.198E+01   -.215E+03 -.102E+01 -.203E+01   0.129E+00 -.392E-02 0.119E+00   0.281E-04 0.961E-05 -.221E-04
   0.215E+03 0.101E+01 -.200E+01   -.214E+03 -.102E+01 0.203E+01   0.147E+00 0.188E-02 -.962E-01   0.371E-04 0.101E-04 0.211E-04
   0.486E+02 -.213E+02 0.427E+02   -.486E+02 0.214E+02 -.423E+02   0.259E+00 -.101E+00 -.556E-01   -.525E-04 0.533E-04 0.580E-04
   0.103E+03 -.100E+01 0.617E+02   -.103E+03 0.109E+01 -.615E+02   -.180E-01 -.691E-01 0.797E-01   0.446E-05 0.191E-05 0.218E-04
   0.163E+02 0.212E+02 0.427E+02   -.159E+02 -.214E+02 -.423E+02   0.717E-01 0.157E+00 -.336E-01   -.498E-04 -.554E-04 0.571E-04
   -.152E+02 -.114E+02 0.125E+02   0.157E+02 0.115E+02 -.126E+02   -.247E+00 -.145E-01 -.162E-01   -.417E-04 -.549E-05 0.429E-04
   -.148E+03 0.209E+02 0.176E+02   0.148E+03 -.209E+02 -.176E+02   -.108E+00 0.208E-01 -.498E-01   -.642E-05 -.501E-05 0.352E-04
   -.162E+03 0.209E+02 -.177E+02   0.161E+03 -.209E+02 0.176E+02   -.242E-01 0.255E-01 0.621E-01   -.220E-05 -.673E-05 -.371E-04
   -.182E+03 0.404E+02 0.413E+02   0.181E+03 -.401E+02 -.410E+02   -.196E-01 0.765E-01 -.401E-02   0.108E-04 -.325E-04 0.426E-04
   -.964E+02 -.164E+02 0.333E+02   0.961E+02 0.164E+02 -.328E+02   0.138E+00 -.257E-01 -.359E-01   -.638E-04 0.195E-04 0.115E-04
   -.117E+02 0.883E+01 -.973E+01   0.123E+02 -.906E+01 0.992E+01   -.181E+00 0.186E-04 0.768E-02   -.440E-04 0.106E-04 -.364E-04
   -.306E+01 -.879E+01 -.971E+01   0.316E+01 0.906E+01 0.992E+01   0.161E+00 -.644E-01 -.268E-01   -.317E-04 -.105E-04 -.372E-04
   0.155E+03 0.147E+02 0.217E+01   -.155E+03 -.142E+02 -.215E+01   0.113E+00 0.511E-01 -.333E-01   0.685E-04 -.670E-05 0.336E-04
   -.130E+03 -.164E+02 -.332E+02   0.130E+03 0.164E+02 0.328E+02   -.275E+00 -.187E-01 -.449E-01   -.393E-04 0.164E-04 -.125E-04
   -.133E+03 -.164E+02 -.138E+02   0.133E+03 0.164E+02 0.138E+02   -.106E-02 -.117E-01 0.220E-01   -.514E-05 0.770E-05 -.169E-04
   0.745E+02 0.831E+00 0.489E+02   -.751E+02 -.859E+00 -.483E+02   -.634E-02 0.646E-01 -.228E-01   0.568E-05 -.469E-05 0.125E-04
   -.130E+03 0.164E+02 0.333E+02   0.130E+03 -.164E+02 -.328E+02   -.178E+00 0.457E-01 0.420E-01   -.146E-04 -.202E-04 0.154E-04
   0.180E+03 -.147E+02 -.216E+01   -.180E+03 0.142E+02 0.215E+01   0.303E+00 -.498E-01 0.334E-01   0.630E-04 0.543E-05 -.303E-04
   0.825E+02 -.827E+00 -.489E+02   -.834E+02 0.859E+00 0.483E+02   0.387E+00 -.657E-01 0.972E-02   0.571E-05 0.350E-05 -.144E-04
   0.374E+02 -.213E+02 -.426E+02   -.370E+02 0.214E+02 0.423E+02   0.150E+00 -.638E-01 -.895E-01   -.645E-04 0.449E-04 -.537E-04
   -.172E+03 -.209E+02 0.176E+02   0.172E+03 0.209E+02 -.176E+02   -.413E+00 0.910E-02 -.415E-02   0.109E-04 0.334E-05 0.293E-04
   0.232E+03 -.109E+01 -.215E+01   -.231E+03 0.109E+01 0.219E+01   0.446E+00 0.768E-02 -.154E-01   0.665E-04 -.993E-05 0.163E-04
   0.170E+02 0.114E+02 0.125E+02   -.170E+02 -.115E+02 -.126E+02   0.216E-01 -.297E-01 -.467E-01   -.649E-04 0.752E-05 0.419E-04
   -.262E+03 0.512E+02 -.523E+02   0.262E+03 -.511E+02 0.522E+02   -.572E+00 0.692E-01 -.606E-01   0.186E-04 -.455E-04 -.550E-04
   0.486E+02 0.214E+02 -.426E+02   -.486E+02 -.214E+02 0.423E+02   0.307E+00 0.446E-02 -.688E-01   -.491E-04 -.451E-04 -.545E-04
   -.231E+03 -.512E+02 0.523E+02   0.231E+03 0.511E+02 -.522E+02   -.219E+00 -.960E-01 0.512E-01   0.111E-04 0.467E-04 0.605E-04
 -----------------------------------------------------------------------------------------------
   0.209E+00 -.609E-02 0.145E+00   0.284E-13 0.171E-12 0.156E-12   -.209E+00 0.608E-02 -.145E+00   0.185E-04 0.437E-05 0.176E-04
 
 
 POSITION                                       TOTAL-FORCE (eV/Angst)
 -----------------------------------------------------------------------------------
      0.00000      0.00000      0.00000        -0.295071      0.080622     -0.392127
     11.51500      1.64500      1.64500        -0.693393     -0.332913     -0.245895
      3.29000      0.00000      0.00000        -0.338175      0.036459     -0.446213
      4.93500      4.93500      4.93500         0.069513     -0.373115     -0.021167
      4.93500      1.64500      1.64500         0.155053      0.374629      0.018400
      6.58000      3.29000      3.29000         0.958887      0.004876      0.071072
      6.58000      0.00000      3.29000         0.742179      0.001462      0.064695
      6.58000      0.00000      0.00000         1.123832     -0.003728     -0.067125
      8.22500      1.64500      4.93500         0.229159      0.016714      0.320126
      3.29000      3.29000      3.29000        -0.373654      0.024235      0.282992
      8.22500      4.93500      4.93500         0.520798     -0.016484      0.333647
      1.64500      1.64500      4.93500         0.246799      0.138799     -0.132460
      9.87000      0.00000      0.00000        -0.427203      0.018233      0.009037
      9.87000      0.00000      3.29000        -0.155543      0.013364     -0.011881
     11.51500      4.93500      4.93500        -0.755487      0.361702      0.283483
      0.00000      3.29000      3.29000        -0.220958     -0.052191      0.463576
      1.64500      4.93500      1.64500         0.409824     -0.227356      0.192184
      1.64500      1.64500      1.64500         0.269096      0.208427      0.182770
      4.93500      1.64500      4.93500         0.088574      0.494250     -0.007896
      0.00000      3.29000      0.00000         0.044204     -0.049042     -0.474936
      9.87000      3.29000      3.29000        -0.520068     -0.045738      0.034226
      3.29000      0.00000      3.29000        -0.616077      0.036371      0.492004
      0.00000      0.00000      3.29000         0.135333      0.047282      0.544347
      4.93500      4.93500      1.64500         0.029428     -0.490869      0.017238
      3.29000      3.29000      0.00000        -0.470646     -0.033194     -0.544532
      8.22500      1.64500      1.64500         0.533296      0.012980     -0.423167
      9.87000      3.29000      0.00000        -0.424497     -0.017176      0.006451
      6.58000      3.29000      0.00000         0.758958      0.009280      0.018469
      1.64500      4.93500      4.93500         0.014592     -0.189912     -0.173254
     11.51500      4.93500      1.64500        -0.624686      0.144199     -0.176060
      8.22500      4.93500      1.64500         0.273366     -0.023689     -0.422572
     11.51500      1.64500      4.93500        -0.687432     -0.168477      0.204570
 -----------------------------------------------------------------------------------
    total drift:                               -0.000002     -0.000006     -0.000005


--------------------------------------------------------------------------------------------------------



  FREE ENERGIE OF THE ION-ELECTRON SYSTEM (eV)
  ---------------------------------------------------
  free  energy   TOTEN  =      -368.94309816 eV

  energy  without entropy=     -368.93648757  energy(sigma->0) =     -368.93979286
 


--------------------------------------------------------------------------------------------------------


    POTLOK:  cpu time      0.0099: real time      0.0099


--------------------------------------------------------------------------------------------------------


     LOOP+:  cpu time    289.2966: real time    290.5559
    4ORBIT:  cpu time      0.0000: real time      0.0000

 total amount of memory used by VASP MPI-rank0    60771. kBytes
=======================================================================

   base      :      30000. kBytes
   nonl-proj :       9945. kBytes
   fftplans  :        778. kBytes
   grid      :       1458. kBytes
   one-center:         46. kBytes
   wavefun   :      18544. kBytes
 
  
  
 General timing and accounting informations for this job:
 ========================================================
  
                  Total CPU time used (sec):      295.146
                            User time (sec):      291.538
                          System time (sec):        3.608
                         Elapsed time (sec):      297.104
  
                   Maximum memory used (kb):      106136.
                   Average memory used (kb):          N/A
  
                          Minor page faults:        11998
                          Major page faults:            0
                 Voluntary context switches:          260
