 vasp.6.3.1 04May22 (build Jul 26 2022 04:02:40) complex                        
  
 executed on             LinuxIFC date 2023.11.30  02:04:00
 running on   48 total cores
 distrk:  each k-point on   48 cores,    1 groups
 distr:  one band on NCORE=  12 cores,    4 groups


--------------------------------------------------------------------------------------------------------


 INCAR:
   ISTART = 0
   NWRITE = 2
   PREC = Accurate
   ENCUT = 250
   GGA = PE
   NSW = 0
   ISIF = 2
   ISYM = 2
   NBLOCK = 1
   KBLOCK = 1
   IBRION = -1
   NELM = 80
   EDIFF = 1E-08
   EDIFFG = -0.01
   ALGO = Normal
   LDIAG = .TRUE.
   LREAL = .FALSE.
   ISMEAR = 0
   SIGMA = 0.02
   ICHARG = 2
   LPLANE = .TRUE.
   NPAR = 4
   LSCALU = .FALSE.
   NSIM = 4
   LWAVE = .FALSE.
   LCHARG = .FALSE.
   ICORELEVEL = 1

 POTCAR:    PAW_PBE Nb_sv 25May2007               
 POTCAR:    PAW_PBE Mo_sv 02Feb2006               
 POTCAR:    PAW_PBE Ta_pv 07Sep2000               
 POTCAR:    PAW_PBE W_sv 04Sep2015                
 POTCAR:    PAW_PBE Nb_sv 25May2007               
   SHA256 =  0e8fc07c9fcd1164cf2ade22d0399fd28f85e91cd773dfa6cf24839a48c95e24 Nb_sv/POTCAR          
   COPYR  = (c) Copyright 25May2007 Georg Kresse                                                    
   COPYR  = This file is part of the software VASP. Any use, copying, and all other rights are regul
   COPYR  = If you do not have a valid VASP license, you may not use, copy or distribute this file. 
   VRHFIN =Nb: 4p5s4d                                                                               
   LEXCH  = PE                                                                                      
   EATOM  =  1555.1913 eV,  114.3033 Ry                                                             
                                                                                                    
   TITEL  = PAW_PBE Nb_sv 25May2007                                                                 
   LULTRA =        F    use ultrasoft PP ?                                                          
   IUNSCR =        1    unscreen: 0-lin 1-nonlin 2-no                                               
   RPACOR =    1.800    partial core radius                                                         
   POMASS =   92.910; ZVAL   =   13.000    mass and valenz                                          
   RCORE  =    2.400    outmost cutoff radius                                                       
   RWIGS  =    2.400; RWIGS  =    1.270    wigner-seitz radius (au A)                               
   ENMAX  =  293.235; ENMIN  =  219.927 eV                                                          
   ICORE  =        3    local potential                                                             
   LCOR   =        T    correct aug charges                                                         
   LPAW   =        T    paw PP                                                                      
   EAUG   =  455.659                                                                                
   DEXC   =    0.000                                                                                
   RMAX   =    2.456    core radius for proj-oper                                                   
   RAUG   =    1.300    factor for augmentation sphere                                              
   RDEP   =    2.451    radius for radial grids                                                     
   RDEPT  =    1.956    core radius for aug-charge                                                  
                                                                                                    
   Atomic configuration                                                                             
   11 entries                                                                                       
     n  l   j            E        occ.                                                              
     1  0  0.50    -18805.2457   2.0000                                                             
     2  0  0.50     -2630.2869   2.0000                                                             
     2  1  1.50     -2348.4046   6.0000                                                             
     3  0  0.50      -438.8757   2.0000                                                             
     3  1  1.50      -346.7588   6.0000                                                             
     3  2  2.50      -196.2560  10.0000                                                             
     4  0  0.50       -58.3859   2.0000                                                             
     5  0  0.50        -3.9816   1.0000                                                             
     4  1  1.50       -34.5141   6.0000                                                             
     4  2  2.50        -3.0408   4.0000                                                             
     4  3  2.50        -1.3606   0.0000                                                             
   Description                                                                                      
     l       E           TYP  RCUT    TYP  RCUT                                                     
     0    -58.3859094     23  2.200                                                                 
     0     -3.9816262     23  2.200                                                                 
     1    -34.5140738     23  2.200                                                                 
     1     13.6058260     23  2.200                                                                 
     2     -3.0408010     23  2.200                                                                 
     2     -0.1283038     23  2.200                                                                 
     3     -1.3605826     23  2.400                                                                 
  local pseudopotential read in
  partial core-charges read in
  partial kinetic energy density read in
  atomic valenz-charges read in
  non local Contribution for L=           0  read in
    real space projection operators read in
  non local Contribution for L=           0  read in
    real space projection operators read in
  non local Contribution for L=           1  read in
    real space projection operators read in
  non local Contribution for L=           1  read in
    real space projection operators read in
  non local Contribution for L=           2  read in
    real space projection operators read in
  non local Contribution for L=           2  read in
    real space projection operators read in
    PAW grid and wavefunctions read in
 
   number of l-projection  operators is LMAX  =           6
   number of lm-projection operators is LMMAX =          18
 
 POTCAR:    PAW_PBE Mo_sv 02Feb2006               
   SHA256 =  2731df97e41766cc617548c5a8267718fdef1f509ac6bafa01e745abea2bdfaa Mo_sv/POTCAR          
   COPYR  = (c) Copyright 02Feb2006 Georg Kresse                                                    
   COPYR  = This file is part of the software VASP. Any use, copying, and all other rights are regul
   COPYR  = If you do not have a valid VASP license, you may not use, copy or distribute this file. 
   VRHFIN =Mo: 4p5s4d                                                                               
   LEXCH  = PE                                                                                      
   EATOM  =  1862.2866 eV,  136.8742 Ry                                                             
                                                                                                    
   TITEL  = PAW_PBE Mo_sv 02Feb2006                                                                 
   LULTRA =        F    use ultrasoft PP ?                                                          
   IUNSCR =        1    unscreen: 0-lin 1-nonlin 2-no                                               
   RPACOR =    2.200    partial core radius                                                         
   POMASS =   95.940; ZVAL   =   14.000    mass and valenz                                          
   RCORE  =    2.500    outmost cutoff radius                                                       
   RWIGS  =    2.750; RWIGS  =    1.455    wigner-seitz radius (au A)                               
   ENMAX  =  242.676; ENMIN  =  182.007 eV                                                          
   ICORE  =        3    local potential                                                             
   LCOR   =        T    correct aug charges                                                         
   LPAW   =        T    paw PP                                                                      
   EAUG   =  446.014                                                                                
   DEXC   =    0.000                                                                                
   RMAX   =    2.563    core radius for proj-oper                                                   
   RAUG   =    1.300    factor for augmentation sphere                                              
   RDEP   =    2.641    radius for radial grids                                                     
   RDEPT  =    2.031    core radius for aug-charge                                                  
                                                                                                    
   Atomic configuration                                                                             
   11 entries                                                                                       
     n  l   j            E        occ.                                                              
     1  0  0.50    -19819.0341   2.0000                                                             
     2  0  0.50     -2799.0127   2.0000                                                             
     2  1  1.50     -2502.0276   6.0000                                                             
     3  0  0.50      -476.4449   2.0000                                                             
     3  1  1.50      -379.1496   6.0000                                                             
     3  2  2.50      -220.9367  10.0000                                                             
     4  0  0.50       -64.3378   2.0000                                                             
     5  0  0.50        -4.0862   1.0000                                                             
     4  1  1.50       -38.4773   6.0000                                                             
     4  2  2.50        -3.7535   5.0000                                                             
     4  3  2.50        -1.3606   0.0000                                                             
   Description                                                                                      
     l       E           TYP  RCUT    TYP  RCUT                                                     
     0    -64.3377829     23  2.100                                                                 
     0     -4.0861640     23  2.400                                                                 
     1    -38.4772993     23  2.100                                                                 
     1     13.6058260     23  2.100                                                                 
     2     -3.7534941     23  2.400                                                                 
     2     -5.1140767     23  2.400                                                                 
     3     -4.0817478     23  2.500                                                                 
  local pseudopotential read in
  partial core-charges read in
  partial kinetic energy density read in
  atomic valenz-charges read in
  non local Contribution for L=           0  read in
    real space projection operators read in
  non local Contribution for L=           0  read in
    real space projection operators read in
  non local Contribution for L=           1  read in
    real space projection operators read in
  non local Contribution for L=           1  read in
    real space projection operators read in
  non local Contribution for L=           2  read in
    real space projection operators read in
  non local Contribution for L=           2  read in
    real space projection operators read in
    PAW grid and wavefunctions read in
 
   number of l-projection  operators is LMAX  =           6
   number of lm-projection operators is LMMAX =          18
 
 POTCAR:    PAW_PBE Ta_pv 07Sep2000               
   SHA256 =  00d0a14a36c127416459414afb8617d9754996fffa60a2465888e660b20a452f Ta_pv/POTCAR          
   COPYR  = (c) Copyright 07Sep2000 Georg Kresse                                                    
   COPYR  = This file is part of the software VASP. Any use, copying, and all other rights are regul
   COPYR  = If you do not have a valid VASP license, you may not use, copy or distribute this file. 
   VRHFIN =Ta:  5p6s5d                                                                              
   LEXCH  = PE                                                                                      
   EATOM  =  1047.1984 eV,   76.9669 Ry                                                             
                                                                                                    
   TITEL  = PAW_PBE Ta_pv 07Sep2000                                                                 
   LULTRA =        F    use ultrasoft PP ?                                                          
   IUNSCR =        1    unscreen: 0-lin 1-nonlin 2-no                                               
   RPACOR =    2.330    partial core radius                                                         
   POMASS =  180.948; ZVAL   =   11.000    mass and valenz                                          
   RCORE  =    2.500    outmost cutoff radius                                                       
   RWIGS  =    2.840; RWIGS  =    1.503    wigner-seitz radius (au A)                               
   ENMAX  =  223.667; ENMIN  =  167.750 eV                                                          
   RCLOC  =    2.205    cutoff for local pot                                                        
   LCOR   =        T    correct aug charges                                                         
   LPAW   =        T    paw PP                                                                      
   EAUG   =  377.421                                                                                
   DEXC   =    0.000                                                                                
   RMAX   =    2.551    core radius for proj-oper                                                   
   RAUG   =    1.300    factor for augmentation sphere                                              
   RDEP   =    2.526    radius for radial grids                                                     
   RDEPT  =    2.132    core radius for aug-charge                                                  
                                                                                                    
   Atomic configuration                                                                             
   15 entries                                                                                       
     n  l   j            E        occ.                                                              
     1  0  0.50    -67341.2801   2.0000                                                             
     2  0  0.50    -11566.9369   2.0000                                                             
     2  1  1.50    -10134.1175   6.0000                                                             
     3  0  0.50     -2648.5614   2.0000                                                             
     3  1  1.50     -2222.6006   6.0000                                                             
     3  2  2.50     -1726.3114  10.0000                                                             
     4  0  0.50      -538.6957   2.0000                                                             
     4  1  1.50      -399.0125   6.0000                                                             
     4  2  2.50      -220.3955  10.0000                                                             
     4  3  3.50       -23.0371  14.0000                                                             
     5  0  0.50       -71.2900   2.0000                                                             
     5  1  1.50       -37.8224   6.0000                                                             
     5  2  2.50        -2.6455   4.0000                                                             
     6  0  0.50        -4.9623   1.0000                                                             
     5  3  2.50        -1.3606   0.0000                                                             
   Description                                                                                      
     l       E           TYP  RCUT    TYP  RCUT                                                     
     1    -37.8224449     23  2.500                                                                 
     1      1.3605826     23  2.500                                                                 
     2     -2.6454718     23  2.500                                                                 
     2     -0.6258570     23  2.500                                                                 
     0     -4.9622674     23  2.500                                                                 
     0      4.7531427     23  2.500                                                                 
  local pseudopotential read in
  partial core-charges read in
  partial kinetic energy density read in
  atomic valenz-charges read in
  non local Contribution for L=           1  read in
    real space projection operators read in
  non local Contribution for L=           1  read in
    real space projection operators read in
  non local Contribution for L=           2  read in
    real space projection operators read in
  non local Contribution for L=           2  read in
    real space projection operators read in
  non local Contribution for L=           0  read in
    real space projection operators read in
  non local Contribution for L=           0  read in
    real space projection operators read in
    PAW grid and wavefunctions read in
 
   number of l-projection  operators is LMAX  =           6
   number of lm-projection operators is LMMAX =          18
 
 POTCAR:    PAW_PBE W_sv 04Sep2015                
   SHA256 =  931c2d770f65867ef30f3db3421922900fc0890ebac5c3e12f63b6a2064023d7 W_sv/POTCAR           
   COPYR  = (c) Copyright 04Sep2015 Georg Kresse                                                    
   COPYR  = This file is part of the software VASP. Any use, copying, and all other rights are regul
   COPYR  = If you do not have a valid VASP license, you may not use, copy or distribute this file. 
   VRHFIN =W : 5p6s5d                                                                               
   LEXCH  = PE                                                                                      
   EATOM  =  1865.5791 eV,  137.1162 Ry                                                             
                                                                                                    
   TITEL  = PAW_PBE W_sv 04Sep2015                                                                  
   LULTRA =        F    use ultrasoft PP ?                                                          
   IUNSCR =        1    unscreen: 0-lin 1-nonlin 2-no                                               
   RPACOR =    2.330    partial core radius                                                         
   POMASS =  183.850; ZVAL   =   14.000    mass and valenz                                          
   RCORE  =    2.500    outmost cutoff radius                                                       
   RWIGS  =    2.750; RWIGS  =    1.455    wigner-seitz radius (au A)                               
   ENMAX  =  223.057; ENMIN  =  167.293 eV                                                          
   ICORE  =        3    local potential                                                             
   LCOR   =        T    correct aug charges                                                         
   LPAW   =        T    paw PP                                                                      
   EAUG   =  373.438                                                                                
   DEXC   =    0.000                                                                                
   RMAX   =    2.565    core radius for proj-oper                                                   
   RAUG   =    1.300    factor for augmentation sphere                                              
   RDEP   =    2.539    radius for radial grids                                                     
   RDEPT  =    2.126    core radius for aug-charge                                                  
                                                                                                    
   Atomic configuration                                                                             
   15 entries                                                                                       
     n  l   j            E        occ.                                                              
     1  0  0.50    -69465.5834   2.0000                                                             
     2  0  0.50    -11986.2640   2.0000                                                             
     2  1  1.50    -10479.8613   6.0000                                                             
     3  0  0.50     -2759.0756   2.0000                                                             
     3  1  1.50     -2313.1855   6.0000                                                             
     3  2  2.50     -1801.1183  10.0000                                                             
     4  0  0.50      -567.6789   2.0000                                                             
     4  1  1.50      -421.4692   6.0000                                                             
     4  2  2.50      -236.3471  10.0000                                                             
     4  3  3.50       -31.2665  14.0000                                                             
     5  0  0.50       -77.1084   2.0000                                                             
     6  0  0.50        -5.1438   1.0000                                                             
     5  1  1.50       -41.3856   6.0000                                                             
     5  2  2.50        -3.3185   5.0000                                                             
     5  3  2.50        -1.3606   0.0000                                                             
   Description                                                                                      
     l       E           TYP  RCUT    TYP  RCUT                                                     
     0    -77.1084470     23  2.100                                                                 
     0     -5.1437956     23  2.300                                                                 
     1    -41.3855615     23  2.500                                                                 
     1     -2.7211652     23  2.500                                                                 
     2     -3.3185025     23  2.500                                                                 
     2     -1.5965151     23  2.500                                                                 
     3     -1.3605826     23  2.500                                                                 
  local pseudopotential read in
  partial core-charges read in
  partial kinetic energy density read in
  kinetic energy density of atom read in
  atomic valenz-charges read in
  non local Contribution for L=           0  read in
    real space projection operators read in
  non local Contribution for L=           0  read in
    real space projection operators read in
  non local Contribution for L=           1  read in
    real space projection operators read in
  non local Contribution for L=           1  read in
    real space projection operators read in
  non local Contribution for L=           2  read in
    real space projection operators read in
  non local Contribution for L=           2  read in
    real space projection operators read in
    PAW grid and wavefunctions read in
 
   number of l-projection  operators is LMAX  =           6
   number of lm-projection operators is LMMAX =          18
 
  PAW_PBE Nb_sv 25May2007               :
 energy of atom  1       EATOM=-1555.1913
 kinetic energy error for atom=    0.2155 (will be added to EATOM!!)
  PAW_PBE Mo_sv 02Feb2006               :
 energy of atom  2       EATOM=-1862.2866
 kinetic energy error for atom=    0.1102 (will be added to EATOM!!)
  PAW_PBE Ta_pv 07Sep2000               :
 energy of atom  3       EATOM=-1047.1984
 kinetic energy error for atom=    0.0394 (will be added to EATOM!!)
  PAW_PBE W_sv 04Sep2015                :
 energy of atom  4       EATOM=-1865.5791
 kinetic energy error for atom=    0.0589 (will be added to EATOM!!)
 
 
 POSCAR: Nb-Mo-Ta-W alloy
  positions in direct lattice
  No initial velocities read in
 exchange correlation table for  LEXCH =        8
   RHO(1)=    0.500       N(1)  =     2000
   RHO(2)=  100.500       N(2)  =     4000
 


--------------------------------------------------------------------------------------------------------


 ion  position               nearest neighbor table
   1  0.750  0.250  0.250-   2 2.85   3 2.85   6 2.85   7 2.85   8 2.85   9 2.85  13 2.85  15 2.85

   2  0.500  0.000  0.000-   1 2.85   4 2.85   5 2.85  10 2.85  11 2.85  12 2.85  14 2.85  16 2.85
                             9 3.29   3 3.29   7 3.29   7 3.29   3 3.29   9 3.29
   3  0.500  0.500  0.000-   1 2.85   4 2.85   5 2.85  10 2.85  11 2.85  12 2.85  14 2.85  16 2.85
                            13 3.29   6 3.29   2 3.29   6 3.29   2 3.29  13 3.29
   4  0.250  0.250  0.250-   2 2.85   3 2.85   6 2.85   7 2.85   8 2.85   9 2.85  13 2.85  15 2.85
                            10 3.29  16 3.29  10 3.29  16 3.29
   5  0.750  0.750  0.750-   2 2.85   3 2.85   6 2.85   7 2.85   8 2.85   9 2.85  13 2.85  15 2.85
                            11 3.29  14 3.29  12 3.29  12 3.29  14 3.29  11 3.29
   6  0.500  0.500  0.500-   1 2.85   4 2.85   5 2.85  10 2.85  11 2.85  12 2.85  14 2.85  16 2.85
                             8 3.29   3 3.29   7 3.29   3 3.29   7 3.29   8 3.29
   7  0.500  0.000  0.500-   1 2.85   4 2.85   5 2.85  10 2.85  11 2.85  12 2.85  14 2.85  16 2.85
                             6 3.29  15 3.29   2 3.29   2 3.29   6 3.29  15 3.29
   8  0.000  0.500  0.500-   1 2.85   4 2.85   5 2.85  10 2.85  11 2.85  12 2.85  14 2.85  16 2.85
                             6 3.29  15 3.29  13 3.29  13 3.29  15 3.29   6 3.29
   9  0.000  0.000  0.000-   1 2.85   4 2.85   5 2.85  10 2.85  11 2.85  12 2.85  14 2.85  16 2.85
                             2 3.29  15 3.29  13 3.29  15 3.29  13 3.29   2 3.29
  10  0.250  0.250  0.750-   2 2.85   3 2.85   6 2.85   7 2.85   8 2.85   9 2.85  13 2.85  15 2.85
                             4 3.29  14 3.29  11 3.29   4 3.29  11 3.29  14 3.29
  11  0.250  0.750  0.750-   2 2.85   3 2.85   6 2.85   7 2.85   8 2.85   9 2.85  13 2.85  15 2.85
                             5 3.29  10 3.29  16 3.29  16 3.29  10 3.29   5 3.29
  12  0.750  0.750  0.250-   2 2.85   3 2.85   6 2.85   7 2.85   8 2.85   9 2.85  13 2.85  15 2.85
                             5 3.29  16 3.29   5 3.29  16 3.29
  13  0.000  0.500  0.000-   1 2.85   4 2.85   5 2.85  10 2.85  11 2.85  12 2.85  14 2.85  16 2.85
                             9 3.29   3 3.29   8 3.29   8 3.29   9 3.29   3 3.29
  14  0.750  0.250  0.750-   2 2.85   3 2.85   6 2.85   7 2.85   8 2.85   9 2.85  13 2.85  15 2.85
                             5 3.29  10 3.29   5 3.29  10 3.29
  15  0.000  0.000  0.500-   1 2.85   4 2.85   5 2.85  10 2.85  11 2.85  12 2.85  14 2.85  16 2.85
                             9 3.29   7 3.29   8 3.29   9 3.29   8 3.29   7 3.29
  16  0.250  0.750  0.250-   2 2.85   3 2.85   6 2.85   7 2.85   8 2.85   9 2.85  13 2.85  15 2.85
                            12 3.29   4 3.29  11 3.29  11 3.29   4 3.29  12 3.29
 
  LATTYP: Found a simple cubic cell.
 ALAT       =     6.5800000000
  
  Lattice vectors:
  
 A1 = (   6.5800000000,   0.0000000000,   0.0000000000)
 A2 = (   0.0000000000,   6.5800000000,   0.0000000000)
 A3 = (   0.0000000000,   0.0000000000,   6.5800000000)


Analysis of symmetry for initial positions (statically):
=====================================================================
 Subroutine PRICEL returns:
 Original cell was already a primitive cell.
 

 Routine SETGRP: Setting up the symmetry group for a 
 simple cubic supercell.


 Subroutine GETGRP returns: Found  1 space group operations
 (whereof  1 operations were pure point group operations)
 out of a pool of 48 trial point group operations.


The static configuration has the point symmetry C_1 .


Analysis of symmetry for dynamics (positions and initial velocities):
=====================================================================
 Subroutine PRICEL returns:
 Original cell was already a primitive cell.
 

 Routine SETGRP: Setting up the symmetry group for a 
 simple cubic supercell.


 Subroutine GETGRP returns: Found  1 space group operations
 (whereof  1 operations were pure point group operations)
 out of a pool of 48 trial point group operations.


The dynamic configuration has the point symmetry C_1 .


 Subroutine INISYM returns: Found  1 space group operations
 (whereof  1 operations are pure point group operations),
 and found     1 'primitive' translations


----------------------------------------------------------------------------------------

                                     Primitive cell                                     

  volume of cell :     284.8903

  direct lattice vectors                    reciprocal lattice vectors
     6.580000000  0.000000000  0.000000000     0.151975684  0.000000000  0.000000000
     0.000000000  6.580000000  0.000000000     0.000000000  0.151975684  0.000000000
     0.000000000  0.000000000  6.580000000     0.000000000  0.000000000  0.151975684

  length of vectors
     6.580000000  6.580000000  6.580000000     0.151975684  0.151975684  0.151975684

  position of ions in fractional coordinates (direct lattice)
     0.750000000  0.250000000  0.250000000
     0.500000000  0.000000000  0.000000000
     0.500000000  0.500000000  0.000000000
     0.250000000  0.250000000  0.250000000
     0.750000000  0.750000000  0.750000000
     0.500000000  0.500000000  0.500000000
     0.500000000  0.000000000  0.500000000
     0.000000000  0.500000000  0.500000000
     0.000000000  0.000000000  0.000000000
     0.250000000  0.250000000  0.750000000
     0.250000000  0.750000000  0.750000000
     0.750000000  0.750000000  0.250000000
     0.000000000  0.500000000  0.000000000
     0.750000000  0.250000000  0.750000000
     0.000000000  0.000000000  0.500000000
     0.250000000  0.750000000  0.250000000

  ion indices of the primitive-cell ions
   primitive index   ion index
                 1           1
                 2           2
                 3           3
                 4           4
                 5           5
                 6           6
                 7           7
                 8           8
                 9           9
                10          10
                11          11
                12          12
                13          13
                14          14
                15          15
                16          16

----------------------------------------------------------------------------------------

 
 
 KPOINTS: K-Spacing Value to Generate K-Mesh: 0.03

Automatic generation of k-mesh.
 Grid dimensions read from file:
 generate k-points for:    5    5    5

 Generating k-lattice:

  Cartesian coordinates                     Fractional coordinates (reciprocal lattice)
     0.030395137  0.000000000  0.000000000     0.200000000  0.000000000  0.000000000
     0.000000000  0.030395137  0.000000000     0.000000000  0.200000000  0.000000000
     0.000000000  0.000000000  0.030395137     0.000000000  0.000000000  0.200000000

  Length of vectors
     0.030395137  0.030395137  0.030395137

  Shift w.r.t. Gamma in fractional coordinates (k-lattice)
     0.000000000  0.000000000  0.000000000

 
 Subroutine IBZKPT returns following result:
 ===========================================
 
 Found     63 irreducible k-points:
 
 Following reciprocal coordinates:
            Coordinates               Weight
  0.000000  0.000000  0.000000      1.000000
  0.200000  0.000000  0.000000      2.000000
  0.000000  0.200000  0.000000      2.000000
  0.000000  0.000000  0.200000      2.000000
  0.400000  0.000000  0.000000      2.000000
  0.000000  0.400000  0.000000      2.000000
  0.000000  0.000000  0.400000      2.000000
  0.200000  0.200000  0.000000      2.000000
  0.000000  0.200000  0.200000      2.000000
  0.200000  0.000000  0.200000      2.000000
 -0.200000  0.200000  0.000000      2.000000
 -0.200000  0.000000  0.200000      2.000000
  0.000000 -0.200000  0.200000      2.000000
  0.400000  0.200000  0.000000      2.000000
  0.000000  0.400000  0.200000      2.000000
  0.200000  0.000000  0.400000      2.000000
 -0.200000  0.400000  0.000000      2.000000
 -0.400000  0.000000  0.200000      2.000000
  0.000000  0.200000  0.400000      2.000000
  0.000000 -0.400000  0.200000      2.000000
 -0.200000  0.000000  0.400000      2.000000
  0.400000  0.000000  0.200000      2.000000
  0.000000 -0.200000  0.400000      2.000000
  0.400000 -0.200000  0.000000      2.000000
  0.200000  0.400000  0.000000      2.000000
  0.400000  0.400000  0.000000      2.000000
  0.000000  0.400000  0.400000      2.000000
  0.400000  0.000000  0.400000      2.000000
 -0.400000  0.400000  0.000000      2.000000
 -0.400000  0.000000  0.400000      2.000000
  0.000000 -0.400000  0.400000      2.000000
  0.200000  0.200000  0.200000      2.000000
 -0.200000  0.200000  0.200000      2.000000
 -0.200000 -0.200000  0.200000      2.000000
  0.200000 -0.200000  0.200000      2.000000
  0.400000  0.200000  0.200000      2.000000
  0.200000  0.400000  0.200000      2.000000
  0.200000  0.200000  0.400000      2.000000
 -0.200000  0.400000  0.200000      2.000000
 -0.400000  0.200000  0.200000      2.000000
 -0.200000  0.200000  0.400000      2.000000
 -0.400000 -0.200000  0.200000      2.000000
 -0.200000 -0.400000  0.200000      2.000000
 -0.200000 -0.200000  0.400000      2.000000
  0.200000 -0.400000  0.200000      2.000000
  0.400000 -0.200000  0.200000      2.000000
  0.200000 -0.200000  0.400000      2.000000
  0.400000  0.400000  0.200000      2.000000
  0.200000  0.400000  0.400000      2.000000
  0.400000  0.200000  0.400000      2.000000
 -0.400000  0.400000  0.200000      2.000000
 -0.400000  0.200000  0.400000      2.000000
 -0.200000  0.400000  0.400000      2.000000
 -0.400000 -0.400000  0.200000      2.000000
 -0.200000 -0.400000  0.400000      2.000000
 -0.400000 -0.200000  0.400000      2.000000
  0.400000 -0.400000  0.200000      2.000000
  0.400000 -0.200000  0.400000      2.000000
  0.200000 -0.400000  0.400000      2.000000
  0.400000  0.400000  0.400000      2.000000
 -0.400000  0.400000  0.400000      2.000000
 -0.400000 -0.400000  0.400000      2.000000
  0.400000 -0.400000  0.400000      2.000000
 
 Following cartesian coordinates:
            Coordinates               Weight
  0.000000  0.000000  0.000000      1.000000
  0.030395  0.000000  0.000000      2.000000
  0.000000  0.030395  0.000000      2.000000
  0.000000  0.000000  0.030395      2.000000
  0.060790  0.000000  0.000000      2.000000
  0.000000  0.060790  0.000000      2.000000
  0.000000  0.000000  0.060790      2.000000
  0.030395  0.030395  0.000000      2.000000
  0.000000  0.030395  0.030395      2.000000
  0.030395  0.000000  0.030395      2.000000
 -0.030395  0.030395  0.000000      2.000000
 -0.030395  0.000000  0.030395      2.000000
  0.000000 -0.030395  0.030395      2.000000
  0.060790  0.030395  0.000000      2.000000
  0.000000  0.060790  0.030395      2.000000
  0.030395  0.000000  0.060790      2.000000
 -0.030395  0.060790  0.000000      2.000000
 -0.060790  0.000000  0.030395      2.000000
  0.000000  0.030395  0.060790      2.000000
  0.000000 -0.060790  0.030395      2.000000
 -0.030395  0.000000  0.060790      2.000000
  0.060790  0.000000  0.030395      2.000000
  0.000000 -0.030395  0.060790      2.000000
  0.060790 -0.030395  0.000000      2.000000
  0.030395  0.060790  0.000000      2.000000
  0.060790  0.060790  0.000000      2.000000
  0.000000  0.060790  0.060790      2.000000
  0.060790  0.000000  0.060790      2.000000
 -0.060790  0.060790  0.000000      2.000000
 -0.060790  0.000000  0.060790      2.000000
  0.000000 -0.060790  0.060790      2.000000
  0.030395  0.030395  0.030395      2.000000
 -0.030395  0.030395  0.030395      2.000000
 -0.030395 -0.030395  0.030395      2.000000
  0.030395 -0.030395  0.030395      2.000000
  0.060790  0.030395  0.030395      2.000000
  0.030395  0.060790  0.030395      2.000000
  0.030395  0.030395  0.060790      2.000000
 -0.030395  0.060790  0.030395      2.000000
 -0.060790  0.030395  0.030395      2.000000
 -0.030395  0.030395  0.060790      2.000000
 -0.060790 -0.030395  0.030395      2.000000
 -0.030395 -0.060790  0.030395      2.000000
 -0.030395 -0.030395  0.060790      2.000000
  0.030395 -0.060790  0.030395      2.000000
  0.060790 -0.030395  0.030395      2.000000
  0.030395 -0.030395  0.060790      2.000000
  0.060790  0.060790  0.030395      2.000000
  0.030395  0.060790  0.060790      2.000000
  0.060790  0.030395  0.060790      2.000000
 -0.060790  0.060790  0.030395      2.000000
 -0.060790  0.030395  0.060790      2.000000
 -0.030395  0.060790  0.060790      2.000000
 -0.060790 -0.060790  0.030395      2.000000
 -0.030395 -0.060790  0.060790      2.000000
 -0.060790 -0.030395  0.060790      2.000000
  0.060790 -0.060790  0.030395      2.000000
  0.060790 -0.030395  0.060790      2.000000
  0.030395 -0.060790  0.060790      2.000000
  0.060790  0.060790  0.060790      2.000000
 -0.060790  0.060790  0.060790      2.000000
 -0.060790 -0.060790  0.060790      2.000000
  0.060790 -0.060790  0.060790      2.000000
 


--------------------------------------------------------------------------------------------------------




 Dimension of arrays:
   k-points           NKPTS =     63   k-points in BZ     NKDIM =     63   number of bands    NBANDS=    128
   number of dos      NEDOS =    301   number of ions     NIONS =     16
   non local maximal  LDIM  =      6   non local SUM 2l+1 LMDIM =     18
   total plane-waves  NPLWV =  46656
   max r-space proj   IRMAX =      1   max aug-charges    IRDMAX=   9546
   dimension x,y,z NGX =    36 NGY =   36 NGZ =   36
   dimension x,y,z NGXF=    72 NGYF=   72 NGZF=   72
   support grid    NGXF=    72 NGYF=   72 NGZF=   72
   ions per type =               1   5   4   6
   NGX,Y,Z   is equivalent  to a cutoff of   9.10,  9.10,  9.10 a.u.
   NGXF,Y,Z  is equivalent  to a cutoff of  18.19, 18.19, 18.19 a.u.

 SYSTEM =  unknown system                          
 POSCAR =  Nb-Mo-Ta-W alloy                        

 Startparameter for this run:
   NWRITE =      2    write-flag & timer
   PREC   = accura    normal or accurate (medium, high low for compatibility)
   ISTART =      0    job   : 0-new  1-cont  2-samecut
   ICHARG =      2    charge: 1-file 2-atom 10-const
   ISPIN  =      1    spin polarized calculation?
   LNONCOLLINEAR =      F non collinear calculations
   LSORBIT =      F    spin-orbit coupling
   INIWAV =      1    electr: 0-lowe 1-rand  2-diag
   LASPH  =      F    aspherical Exc in radial PAW
 Electronic Relaxation 1
   ENCUT  =  250.0 eV  18.37 Ry    4.29 a.u.   8.48  8.48  8.48*2*pi/ulx,y,z
   ENINI  =  250.0     initial cutoff
   ENAUG  =  455.7 eV  augmentation charge cutoff
   NELM   =     80;   NELMIN=  2; NELMDL= -5     # of ELM steps 
   EDIFF  = 0.1E-07   stopping-criterion for ELM
   LREAL  =      F    real-space projection
   NLSPLINE    = F    spline interpolate recip. space projectors
   LCOMPAT=      F    compatible to vasp.4.4
   GGA_COMPAT  = T    GGA compatible to vasp.4.4-vasp.4.6
   LMAXPAW     = -100 max onsite density
   LMAXMIX     =    2 max onsite mixed and CHGCAR
   VOSKOWN=      0    Vosko Wilk Nusair interpolation
   ROPT   =    0.00000   0.00000   0.00000   0.00000
 Ionic relaxation
   EDIFFG = -.1E-01   stopping-criterion for IOM
   NSW    =      0    number of steps for IOM
   NBLOCK =      1;   KBLOCK =      1    inner block; outer block 
   IBRION =     -1    ionic relax: 0-MD 1-quasi-New 2-CG
   NFREE  =      0    steps in history (QN), initial steepest desc. (CG)
   ISIF   =      2    stress and relaxation
   IWAVPR =     10    prediction:  0-non 1-charg 2-wave 3-comb
   ISYM   =      2    0-nonsym 1-usesym 2-fastsym
   LCORR  =      T    Harris-Foulkes like correction to forces

   POTIM  = 0.5000    time-step for ionic-motion
   TEIN   =    0.0    initial temperature
   TEBEG  =    0.0;   TEEND  =   0.0 temperature during run
   SMASS  =  -3.00    Nose mass-parameter (am)
   estimated Nose-frequenzy (Omega)   =  0.10E-29 period in steps = 0.13E+47 mass=  -0.989E-27a.u.
   SCALEE = 1.0000    scale energy and forces
   NPACO  =    256;   APACO  = 10.0  distance and # of slots for P.C.
   PSTRESS=    0.0 pullay stress

  Mass of Ions in am
   POMASS =  92.91 95.94180.95183.85
  Ionic Valenz
   ZVAL   =  13.00 14.00 11.00 14.00
  Atomic Wigner-Seitz radii
   RWIGS  =  -1.00 -1.00 -1.00 -1.00
  virtual crystal weights 
   VCA    =   1.00  1.00  1.00  1.00
   NELECT =     211.0000    total number of electrons
   NUPDOWN=      -1.0000    fix difference up-down

 DOS related values:
   EMIN   =  10.00;   EMAX   =-10.00  energy-range for DOS
   EFERMI =   0.00
   ISMEAR =     0;   SIGMA  =   0.02  broadening in eV -4-tet -1-fermi 0-gaus

 Electronic relaxation 2 (details)
   IALGO  =     38    algorithm
   LDIAG  =      T    sub-space diagonalisation (order eigenvalues)
   LSUBROT=      F    optimize rotation matrix (better conditioning)
   TURBO    =      0    0=normal 1=particle mesh
   IRESTART =      0    0=no restart 2=restart with 2 vectors
   NREBOOT  =      0    no. of reboots
   NMIN     =      0    reboot dimension
   EREF     =   0.00    reference energy to select bands
   IMIX   =      4    mixing-type and parameters
     AMIX     =   0.40;   BMIX     =  1.00
     AMIX_MAG =   1.60;   BMIX_MAG =  1.00
     AMIN     =   0.10
     WC   =   100.;   INIMIX=   1;  MIXPRE=   1;  MAXMIX= -45

 Intra band minimization:
   WEIMIN = 0.0000     energy-eigenvalue tresh-hold
   EBREAK =  0.20E-10  absolut break condition
   DEPER  =   0.30     relativ break condition  

   TIME   =   0.40     timestep for ELM

  volume/ion in A,a.u.               =      17.81       120.16
  Fermi-wavevector in a.u.,A,eV,Ry     =   1.481187  2.799037 29.850006  2.193914
  Thomas-Fermi vector in A             =   2.595128
 
 Write flags
   LWAVE        =      F    write WAVECAR
   LDOWNSAMPLE  =      F    k-point downsampling of WAVECAR
   LCHARG       =      F    write CHGCAR
   LVTOT        =      F    write LOCPOT, total local potential
   LVHAR        =      F    write LOCPOT, Hartree potential only
   LELF         =      F    write electronic localiz. function (ELF)
   LORBIT       =      0    0 simple, 1 ext, 2 COOP (PROOUT), +10 PAW based schemes


 Dipole corrections
   LMONO  =      F    monopole corrections only (constant potential shift)
   LDIPOL =      F    correct potential (dipole corrections)
   IDIPOL =      0    1-x, 2-y, 3-z, 4-all directions 
   EPSILON=  1.0000000 bulk dielectric constant

 Core level calculations are selected ICORELEVEL =  1
 Exchange correlation treatment:
   GGA     =    PE    GGA type
   LEXCH   =     8    internal setting for exchange type
   LIBXC   =     F    Libxc                    
   VOSKOWN =     0    Vosko Wilk Nusair interpolation
   LHFCALC =     F    Hartree Fock is set to
   LHFONE  =     F    Hartree Fock one center treatment
   AEXX    =    0.0000 exact exchange contribution

 Linear response parameters
   LEPSILON=     F    determine dielectric tensor
   LRPA    =     F    only Hartree local field effects (RPA)
   LNABLA  =     F    use nabla operator in PAW spheres
   LVEL    =     F    velocity operator in full k-point grid
   CSHIFT  =0.1000    complex shift for real part using Kramers Kronig
   OMEGAMAX=  -1.0    maximum frequency
   DEG_THRESHOLD= 0.2000000E-02 threshold for treating states as degnerate
   RTIME   =   -0.100 relaxation time in fs
  (WPLASMAI=    0.000 imaginary part of plasma frequency in eV, 0.658/RTIME)
   DFIELD  = 0.0000000 0.0000000 0.0000000 field for delta impulse in time
 
  Optional k-point grid parameters
   LKPOINTS_OPT  =     F    use optional k-point grid
   KPOINTS_OPT_MODE=     1    mode for optional k-point grid
 
 Orbital magnetization related:
   ORBITALMAG=     F  switch on orbital magnetization
   LCHIMAG   =     F  perturbation theory with respect to B field
   DQ        =  0.001000  dq finite difference perturbation B field
   LLRAUG    =     F  two centre corrections for induced B field



--------------------------------------------------------------------------------------------------------


 Static calculation
 charge density and potential will be updated during run
 non-spin polarized calculation
 Variant of blocked Davidson
 Davidson routine will perform the subspace rotation
 perform sub-space diagonalisation
    after iterative eigenvector-optimisation
 modified Broyden-mixing scheme, WC =      100.0
 initial mixing is a Kerker type mixing with AMIX =  0.4000 and BMIX =      1.0000
 Hartree-type preconditioning will be used
 using additional bands           22
 reciprocal scheme for non local part
 use partial core corrections
 calculate Harris-corrections to forces 
   (improved forces if not selfconsistent)
 use gradient corrections 
 use of overlap-Matrix (Vanderbilt PP)
 Gauss-broadening in eV      SIGMA  =   0.02


--------------------------------------------------------------------------------------------------------


  energy-cutoff  :      250.00
  volume of cell :      284.89
      direct lattice vectors                 reciprocal lattice vectors
     6.580000000  0.000000000  0.000000000     0.151975684  0.000000000  0.000000000
     0.000000000  6.580000000  0.000000000     0.000000000  0.151975684  0.000000000
     0.000000000  0.000000000  6.580000000     0.000000000  0.000000000  0.151975684

  length of vectors
     6.580000000  6.580000000  6.580000000     0.151975684  0.151975684  0.151975684


 
 k-points in units of 2pi/SCALE and weight: K-Spacing Value to Generate K-Mesh: 0.03
   0.00000000  0.00000000  0.00000000       0.008
   0.03039514  0.00000000  0.00000000       0.016
   0.00000000  0.03039514  0.00000000       0.016
   0.00000000  0.00000000  0.03039514       0.016
   0.06079027  0.00000000  0.00000000       0.016
   0.00000000  0.06079027  0.00000000       0.016
   0.00000000  0.00000000  0.06079027       0.016
   0.03039514  0.03039514  0.00000000       0.016
   0.00000000  0.03039514  0.03039514       0.016
   0.03039514  0.00000000  0.03039514       0.016
  -0.03039514  0.03039514  0.00000000       0.016
  -0.03039514  0.00000000  0.03039514       0.016
   0.00000000 -0.03039514  0.03039514       0.016
   0.06079027  0.03039514  0.00000000       0.016
   0.00000000  0.06079027  0.03039514       0.016
   0.03039514  0.00000000  0.06079027       0.016
  -0.03039514  0.06079027  0.00000000       0.016
  -0.06079027  0.00000000  0.03039514       0.016
   0.00000000  0.03039514  0.06079027       0.016
   0.00000000 -0.06079027  0.03039514       0.016
  -0.03039514  0.00000000  0.06079027       0.016
   0.06079027  0.00000000  0.03039514       0.016
   0.00000000 -0.03039514  0.06079027       0.016
   0.06079027 -0.03039514  0.00000000       0.016
   0.03039514  0.06079027  0.00000000       0.016
   0.06079027  0.06079027  0.00000000       0.016
   0.00000000  0.06079027  0.06079027       0.016
   0.06079027  0.00000000  0.06079027       0.016
  -0.06079027  0.06079027  0.00000000       0.016
  -0.06079027  0.00000000  0.06079027       0.016
   0.00000000 -0.06079027  0.06079027       0.016
   0.03039514  0.03039514  0.03039514       0.016
  -0.03039514  0.03039514  0.03039514       0.016
  -0.03039514 -0.03039514  0.03039514       0.016
   0.03039514 -0.03039514  0.03039514       0.016
   0.06079027  0.03039514  0.03039514       0.016
   0.03039514  0.06079027  0.03039514       0.016
   0.03039514  0.03039514  0.06079027       0.016
  -0.03039514  0.06079027  0.03039514       0.016
  -0.06079027  0.03039514  0.03039514       0.016
  -0.03039514  0.03039514  0.06079027       0.016
  -0.06079027 -0.03039514  0.03039514       0.016
  -0.03039514 -0.06079027  0.03039514       0.016
  -0.03039514 -0.03039514  0.06079027       0.016
   0.03039514 -0.06079027  0.03039514       0.016
   0.06079027 -0.03039514  0.03039514       0.016
   0.03039514 -0.03039514  0.06079027       0.016
   0.06079027  0.06079027  0.03039514       0.016
   0.03039514  0.06079027  0.06079027       0.016
   0.06079027  0.03039514  0.06079027       0.016
  -0.06079027  0.06079027  0.03039514       0.016
  -0.06079027  0.03039514  0.06079027       0.016
  -0.03039514  0.06079027  0.06079027       0.016
  -0.06079027 -0.06079027  0.03039514       0.016
  -0.03039514 -0.06079027  0.06079027       0.016
  -0.06079027 -0.03039514  0.06079027       0.016
   0.06079027 -0.06079027  0.03039514       0.016
   0.06079027 -0.03039514  0.06079027       0.016
   0.03039514 -0.06079027  0.06079027       0.016
   0.06079027  0.06079027  0.06079027       0.016
  -0.06079027  0.06079027  0.06079027       0.016
  -0.06079027 -0.06079027  0.06079027       0.016
   0.06079027 -0.06079027  0.06079027       0.016
 
 k-points in reciprocal lattice and weights: K-Spacing Value to Generate K-Mesh: 0.03
   0.00000000  0.00000000  0.00000000       0.008
   0.20000000  0.00000000  0.00000000       0.016
   0.00000000  0.20000000  0.00000000       0.016
   0.00000000  0.00000000  0.20000000       0.016
   0.40000000  0.00000000  0.00000000       0.016
   0.00000000  0.40000000  0.00000000       0.016
   0.00000000  0.00000000  0.40000000       0.016
   0.20000000  0.20000000  0.00000000       0.016
   0.00000000  0.20000000  0.20000000       0.016
   0.20000000  0.00000000  0.20000000       0.016
  -0.20000000  0.20000000  0.00000000       0.016
  -0.20000000  0.00000000  0.20000000       0.016
   0.00000000 -0.20000000  0.20000000       0.016
   0.40000000  0.20000000  0.00000000       0.016
   0.00000000  0.40000000  0.20000000       0.016
   0.20000000  0.00000000  0.40000000       0.016
  -0.20000000  0.40000000  0.00000000       0.016
  -0.40000000  0.00000000  0.20000000       0.016
   0.00000000  0.20000000  0.40000000       0.016
   0.00000000 -0.40000000  0.20000000       0.016
  -0.20000000  0.00000000  0.40000000       0.016
   0.40000000  0.00000000  0.20000000       0.016
   0.00000000 -0.20000000  0.40000000       0.016
   0.40000000 -0.20000000  0.00000000       0.016
   0.20000000  0.40000000  0.00000000       0.016
   0.40000000  0.40000000  0.00000000       0.016
   0.00000000  0.40000000  0.40000000       0.016
   0.40000000  0.00000000  0.40000000       0.016
  -0.40000000  0.40000000  0.00000000       0.016
  -0.40000000  0.00000000  0.40000000       0.016
   0.00000000 -0.40000000  0.40000000       0.016
   0.20000000  0.20000000  0.20000000       0.016
  -0.20000000  0.20000000  0.20000000       0.016
  -0.20000000 -0.20000000  0.20000000       0.016
   0.20000000 -0.20000000  0.20000000       0.016
   0.40000000  0.20000000  0.20000000       0.016
   0.20000000  0.40000000  0.20000000       0.016
   0.20000000  0.20000000  0.40000000       0.016
  -0.20000000  0.40000000  0.20000000       0.016
  -0.40000000  0.20000000  0.20000000       0.016
  -0.20000000  0.20000000  0.40000000       0.016
  -0.40000000 -0.20000000  0.20000000       0.016
  -0.20000000 -0.40000000  0.20000000       0.016
  -0.20000000 -0.20000000  0.40000000       0.016
   0.20000000 -0.40000000  0.20000000       0.016
   0.40000000 -0.20000000  0.20000000       0.016
   0.20000000 -0.20000000  0.40000000       0.016
   0.40000000  0.40000000  0.20000000       0.016
   0.20000000  0.40000000  0.40000000       0.016
   0.40000000  0.20000000  0.40000000       0.016
  -0.40000000  0.40000000  0.20000000       0.016
  -0.40000000  0.20000000  0.40000000       0.016
  -0.20000000  0.40000000  0.40000000       0.016
  -0.40000000 -0.40000000  0.20000000       0.016
  -0.20000000 -0.40000000  0.40000000       0.016
  -0.40000000 -0.20000000  0.40000000       0.016
   0.40000000 -0.40000000  0.20000000       0.016
   0.40000000 -0.20000000  0.40000000       0.016
   0.20000000 -0.40000000  0.40000000       0.016
   0.40000000  0.40000000  0.40000000       0.016
  -0.40000000  0.40000000  0.40000000       0.016
  -0.40000000 -0.40000000  0.40000000       0.016
   0.40000000 -0.40000000  0.40000000       0.016
 
 position of ions in fractional coordinates (direct lattice) 
   0.75000000  0.25000000  0.25000000
   0.50000000  0.00000000  0.00000000
   0.50000000  0.50000000  0.00000000
   0.25000000  0.25000000  0.25000000
   0.75000000  0.75000000  0.75000000
   0.50000000  0.50000000  0.50000000
   0.50000000  0.00000000  0.50000000
   0.00000000  0.50000000  0.50000000
   0.00000000  0.00000000  0.00000000
   0.25000000  0.25000000  0.75000000
   0.25000000  0.75000000  0.75000000
   0.75000000  0.75000000  0.25000000
   0.00000000  0.50000000  0.00000000
   0.75000000  0.25000000  0.75000000
   0.00000000  0.00000000  0.50000000
   0.25000000  0.75000000  0.25000000
 
 position of ions in cartesian coordinates  (Angst):
   4.93500000  1.64500000  1.64500000
   3.29000000  0.00000000  0.00000000
   3.29000000  3.29000000  0.00000000
   1.64500000  1.64500000  1.64500000
   4.93500000  4.93500000  4.93500000
   3.29000000  3.29000000  3.29000000
   3.29000000  0.00000000  3.29000000
   0.00000000  3.29000000  3.29000000
   0.00000000  0.00000000  0.00000000
   1.64500000  1.64500000  4.93500000
   1.64500000  4.93500000  4.93500000
   4.93500000  4.93500000  1.64500000
   0.00000000  3.29000000  0.00000000
   4.93500000  1.64500000  4.93500000
   0.00000000  0.00000000  3.29000000
   1.64500000  4.93500000  1.64500000
 


--------------------------------------------------------------------------------------------------------


 k-point   1 :   0.0000 0.0000 0.0000  plane waves:    2517
 k-point   2 :   0.2000 0.0000 0.0000  plane waves:    2545
 k-point   3 :   0.0000 0.2000 0.0000  plane waves:    2545
 k-point   4 :   0.0000 0.0000 0.2000  plane waves:    2545
 k-point   5 :   0.4000 0.0000 0.0000  plane waves:    2569
 k-point   6 :   0.0000 0.4000 0.0000  plane waves:    2569
 k-point   7 :   0.0000 0.0000 0.4000  plane waves:    2569
 k-point   8 :   0.2000 0.2000 0.0000  plane waves:    2562
 k-point   9 :   0.0000 0.2000 0.2000  plane waves:    2562
 k-point  10 :   0.2000 0.0000 0.2000  plane waves:    2562
 k-point  11 :  -0.2000 0.2000 0.0000  plane waves:    2562
 k-point  12 :  -0.2000 0.0000 0.2000  plane waves:    2562
 k-point  13 :   0.0000-0.2000 0.2000  plane waves:    2562
 k-point  14 :   0.4000 0.2000 0.0000  plane waves:    2566
 k-point  15 :   0.0000 0.4000 0.2000  plane waves:    2566
 k-point  16 :   0.2000 0.0000 0.4000  plane waves:    2566
 k-point  17 :  -0.2000 0.4000 0.0000  plane waves:    2566
 k-point  18 :  -0.4000 0.0000 0.2000  plane waves:    2566
 k-point  19 :   0.0000 0.2000 0.4000  plane waves:    2566
 k-point  20 :   0.0000-0.4000 0.2000  plane waves:    2566
 k-point  21 :  -0.2000 0.0000 0.4000  plane waves:    2566
 k-point  22 :   0.4000 0.0000 0.2000  plane waves:    2566
 k-point  23 :   0.0000-0.2000 0.4000  plane waves:    2566
 k-point  24 :   0.4000-0.2000 0.0000  plane waves:    2566
 k-point  25 :   0.2000 0.4000 0.0000  plane waves:    2566
 k-point  26 :   0.4000 0.4000 0.0000  plane waves:    2570
 k-point  27 :   0.0000 0.4000 0.4000  plane waves:    2570
 k-point  28 :   0.4000 0.0000 0.4000  plane waves:    2570
 k-point  29 :  -0.4000 0.4000 0.0000  plane waves:    2570
 k-point  30 :  -0.4000 0.0000 0.4000  plane waves:    2570
 k-point  31 :   0.0000-0.4000 0.4000  plane waves:    2570
 k-point  32 :   0.2000 0.2000 0.2000  plane waves:    2572
 k-point  33 :  -0.2000 0.2000 0.2000  plane waves:    2572
 k-point  34 :  -0.2000-0.2000 0.2000  plane waves:    2572
 k-point  35 :   0.2000-0.2000 0.2000  plane waves:    2572
 k-point  36 :   0.4000 0.2000 0.2000  plane waves:    2546
 k-point  37 :   0.2000 0.4000 0.2000  plane waves:    2546
 k-point  38 :   0.2000 0.2000 0.4000  plane waves:    2546
 k-point  39 :  -0.2000 0.4000 0.2000  plane waves:    2546
 k-point  40 :  -0.4000 0.2000 0.2000  plane waves:    2546
 k-point  41 :  -0.2000 0.2000 0.4000  plane waves:    2546
 k-point  42 :  -0.4000-0.2000 0.2000  plane waves:    2546
 k-point  43 :  -0.2000-0.4000 0.2000  plane waves:    2546
 k-point  44 :  -0.2000-0.2000 0.4000  plane waves:    2546
 k-point  45 :   0.2000-0.4000 0.2000  plane waves:    2546
 k-point  46 :   0.4000-0.2000 0.2000  plane waves:    2546
 k-point  47 :   0.2000-0.2000 0.4000  plane waves:    2546
 k-point  48 :   0.4000 0.4000 0.2000  plane waves:    2549
 k-point  49 :   0.2000 0.4000 0.4000  plane waves:    2549
 k-point  50 :   0.4000 0.2000 0.4000  plane waves:    2549
 k-point  51 :  -0.4000 0.4000 0.2000  plane waves:    2549
 k-point  52 :  -0.4000 0.2000 0.4000  plane waves:    2549
 k-point  53 :  -0.2000 0.4000 0.4000  plane waves:    2549
 k-point  54 :  -0.4000-0.4000 0.2000  plane waves:    2549
 k-point  55 :  -0.2000-0.4000 0.4000  plane waves:    2549
 k-point  56 :  -0.4000-0.2000 0.4000  plane waves:    2549
 k-point  57 :   0.4000-0.4000 0.2000  plane waves:    2549
 k-point  58 :   0.4000-0.2000 0.4000  plane waves:    2549
 k-point  59 :   0.2000-0.4000 0.4000  plane waves:    2549
 k-point  60 :   0.4000 0.4000 0.4000  plane waves:    2533
 k-point  61 :  -0.4000 0.4000 0.4000  plane waves:    2533
 k-point  62 :  -0.4000-0.4000 0.4000  plane waves:    2533
 k-point  63 :   0.4000-0.4000 0.4000  plane waves:    2533

 maximum and minimum number of plane-waves per node :       235      194

 maximum number of plane-waves:      2572
 maximum index in each direction: 
   IXMAX=    8   IYMAX=    8   IZMAX=    8
   IXMIN=   -8   IYMIN=   -8   IZMIN=   -8


 parallel 3D FFT for wavefunctions:
    minimum data exchange during FFTs selected (reduces bandwidth)
 parallel 3D FFT for charge:
    minimum data exchange during FFTs selected (reduces bandwidth)


 total amount of memory used by VASP MPI-rank0    48253. kBytes
=======================================================================

   base      :      30000. kBytes
   nonl-proj :       8332. kBytes
   fftplans  :        456. kBytes
   grid      :        919. kBytes
   one-center:         31. kBytes
   wavefun   :       8515. kBytes
 
     INWAV:  cpu time      0.0000: real time      0.0000
 Broyden mixing: mesh for mixing (old mesh)
   NGX = 17   NGY = 17   NGZ = 17
  (NGX  = 72   NGY  = 72   NGZ  = 72)
  gives a total of   4913 points

 initial charge density was supplied:
 charge density of overlapping atoms calculated
 number of electron     211.0000000 magnetization 
 keeping initial charge density in first step


--------------------------------------------------------------------------------------------------------


 Maximum index for augmentation-charges          517 (set IRDMAX)


--------------------------------------------------------------------------------------------------------


 First call to EWALD:  gamma=   0.269
 Maximum number of real-space cells 3x 3x 3
 Maximum number of reciprocal cells 3x 3x 3

    FEWALD:  cpu time      0.0012: real time      0.0012


--------------------------------------- Iteration      1(   1)  ---------------------------------------


    POTLOK:  cpu time      0.1004: real time      0.2734
    SETDIJ:  cpu time      0.0034: real time      0.0035
     EDDAV:  cpu time      3.5104: real time      3.5257
       DOS:  cpu time      0.0052: real time      0.0052
    --------------------------------------------
      LOOP:  cpu time      3.6193: real time      3.8079

 eigenvalue-minimisations  : 16752
 total energy-change (2. order) : 0.2042689E+04  (-0.8316990E+04)
 number of electron     211.0000000 magnetization 
 augmentation part      211.0000000 magnetization 

 Free energy of the ion-electron system (eV)
  ---------------------------------------------------
  alpha Z        PSCENC =      1950.09657029
  Ewald energy   TEWEN  =    -22245.56836594
  -Hartree energ DENC   =     -4228.79694307
  -exchange      EXHF   =         0.00000000
  -V(xc)+E(xc)   XCENC  =       825.77694714
  PAW double counting   =     20787.47408778   -20474.90899087
  entropy T*S    EENTRO =        -0.00128526
  eigenvalues    EBANDS =      -818.99772330
  atomic energy  EATOM  =     26247.61475506
  Solvation  Ediel_sol  =         0.00000000
  ---------------------------------------------------
  free energy    TOTEN  =      2042.68905183 eV

  energy without entropy =     2042.69033709  energy(sigma->0) =     2042.68969446


--------------------------------------------------------------------------------------------------------




--------------------------------------- Iteration      1(   2)  ---------------------------------------


     EDDAV:  cpu time      3.0858: real time      3.0997
       DOS:  cpu time      0.0049: real time      0.0049
    --------------------------------------------
      LOOP:  cpu time      3.0907: real time      3.1047

 eigenvalue-minimisations  : 16896
 total energy-change (2. order) :-0.2091165E+04  (-0.2022116E+04)
 number of electron     211.0000000 magnetization 
 augmentation part      211.0000000 magnetization 

 Free energy of the ion-electron system (eV)
  ---------------------------------------------------
  alpha Z        PSCENC =      1950.09657029
  Ewald energy   TEWEN  =    -22245.56836594
  -Hartree energ DENC   =     -4228.79694307
  -exchange      EXHF   =         0.00000000
  -V(xc)+E(xc)   XCENC  =       825.77694714
  PAW double counting   =     20787.47408778   -20474.90899087
  entropy T*S    EENTRO =        -0.00157509
  eigenvalues    EBANDS =     -2910.16280233
  atomic energy  EATOM  =     26247.61475506
  Solvation  Ediel_sol  =         0.00000000
  ---------------------------------------------------
  free energy    TOTEN  =       -48.47631704 eV

  energy without entropy =      -48.47474195  energy(sigma->0) =      -48.47552949


--------------------------------------------------------------------------------------------------------




--------------------------------------- Iteration      1(   3)  ---------------------------------------


     EDDAV:  cpu time      3.9562: real time      3.9746
       DOS:  cpu time      0.0047: real time      0.0047
    --------------------------------------------
      LOOP:  cpu time      3.9609: real time      3.9794

 eigenvalue-minimisations  : 22360
 total energy-change (2. order) :-0.1454263E+03  (-0.1374773E+03)
 number of electron     211.0000000 magnetization 
 augmentation part      211.0000000 magnetization 

 Free energy of the ion-electron system (eV)
  ---------------------------------------------------
  alpha Z        PSCENC =      1950.09657029
  Ewald energy   TEWEN  =    -22245.56836594
  -Hartree energ DENC   =     -4228.79694307
  -exchange      EXHF   =         0.00000000
  -V(xc)+E(xc)   XCENC  =       825.77694714
  PAW double counting   =     20787.47408778   -20474.90899087
  entropy T*S    EENTRO =        -0.00130676
  eigenvalues    EBANDS =     -3055.58939191
  atomic energy  EATOM  =     26247.61475506
  Solvation  Ediel_sol  =         0.00000000
  ---------------------------------------------------
  free energy    TOTEN  =      -193.90263827 eV

  energy without entropy =     -193.90133152  energy(sigma->0) =     -193.90198490


--------------------------------------------------------------------------------------------------------




--------------------------------------- Iteration      1(   4)  ---------------------------------------


     EDDAV:  cpu time      3.7149: real time      3.7306
       DOS:  cpu time      0.0050: real time      0.0050
    --------------------------------------------
      LOOP:  cpu time      3.7200: real time      3.7376

 eigenvalue-minimisations  : 21224
 total energy-change (2. order) :-0.6495979E+01  (-0.6347604E+01)
 number of electron     211.0000000 magnetization 
 augmentation part      211.0000000 magnetization 

 Free energy of the ion-electron system (eV)
  ---------------------------------------------------
  alpha Z        PSCENC =      1950.09657029
  Ewald energy   TEWEN  =    -22245.56836594
  -Hartree energ DENC   =     -4228.79694307
  -exchange      EXHF   =         0.00000000
  -V(xc)+E(xc)   XCENC  =       825.77694714
  PAW double counting   =     20787.47408778   -20474.90899087
  entropy T*S    EENTRO =        -0.00240031
  eigenvalues    EBANDS =     -3062.08427772
  atomic energy  EATOM  =     26247.61475506
  Solvation  Ediel_sol  =         0.00000000
  ---------------------------------------------------
  free energy    TOTEN  =      -200.39861764 eV

  energy without entropy =     -200.39621734  energy(sigma->0) =     -200.39741749


--------------------------------------------------------------------------------------------------------




--------------------------------------- Iteration      1(   5)  ---------------------------------------


     EDDAV:  cpu time      4.1413: real time      4.1604
       DOS:  cpu time      0.0051: real time      0.0051
    CHARGE:  cpu time      0.0856: real time      0.0859
    MIXING:  cpu time      0.0003: real time      0.0003
    --------------------------------------------
      LOOP:  cpu time      4.2321: real time      4.2496

 eigenvalue-minimisations  : 24976
 total energy-change (2. order) :-0.3264364E+00  (-0.3244651E+00)
 number of electron     210.9999828 magnetization 
 augmentation part       49.9466938 magnetization 

 Broyden mixing:
  rms(total) = 0.57078E+01    rms(broyden)= 0.57067E+01
  rms(prec ) = 0.62458E+01
  weight for this iteration     100.00

 Free energy of the ion-electron system (eV)
  ---------------------------------------------------
  alpha Z        PSCENC =      1950.09657029
  Ewald energy   TEWEN  =    -22245.56836594
  -Hartree energ DENC   =     -4228.79694307
  -exchange      EXHF   =         0.00000000
  -V(xc)+E(xc)   XCENC  =       825.77694714
  PAW double counting   =     20787.47408778   -20474.90899087
  entropy T*S    EENTRO =        -0.00232467
  eigenvalues    EBANDS =     -3062.41078972
  atomic energy  EATOM  =     26247.61475506
  Solvation  Ediel_sol  =         0.00000000
  ---------------------------------------------------
  free energy    TOTEN  =      -200.72505400 eV

  energy without entropy =     -200.72272933  energy(sigma->0) =     -200.72389166


--------------------------------------------------------------------------------------------------------




--------------------------------------- Iteration      1(   6)  ---------------------------------------


    POTLOK:  cpu time      0.0054: real time      0.0055
    SETDIJ:  cpu time      0.0020: real time      0.0020
     EDDAV:  cpu time      3.3684: real time      3.3822
       DOS:  cpu time      0.0046: real time      0.0046
    CHARGE:  cpu time      0.0852: real time      0.0855
    MIXING:  cpu time      0.0003: real time      0.0003
    --------------------------------------------
      LOOP:  cpu time      3.4658: real time      3.4801

 eigenvalue-minimisations  : 19000
 total energy-change (2. order) : 0.8424798E+01  (-0.2184280E+01)
 number of electron     210.9999815 magnetization 
 augmentation part       51.7969158 magnetization 

 Broyden mixing:
  rms(total) = 0.20457E+01    rms(broyden)= 0.20455E+01
  rms(prec ) = 0.24437E+01
  weight for this iteration     100.00

 eigenvalues of (default mixing * dielectric matrix)
  average eigenvalue GAMMA=   1.4303
  1.4303

 Free energy of the ion-electron system (eV)
  ---------------------------------------------------
  alpha Z        PSCENC =      1950.09657029
  Ewald energy   TEWEN  =    -22245.56836594
  -Hartree energ DENC   =     -3984.85466697
  -exchange      EXHF   =         0.00000000
  -V(xc)+E(xc)   XCENC  =       813.95743022
  PAW double counting   =     24520.84919236   -24244.63461920
  entropy T*S    EENTRO =        -0.00186593
  eigenvalues    EBANDS =     -3249.75868594
  atomic energy  EATOM  =     26247.61475506
  Solvation  Ediel_sol  =         0.00000000
  ---------------------------------------------------
  free energy    TOTEN  =      -192.30025605 eV

  energy without entropy =     -192.29839012  energy(sigma->0) =     -192.29932309


--------------------------------------------------------------------------------------------------------




--------------------------------------- Iteration      1(   7)  ---------------------------------------


    POTLOK:  cpu time      0.0046: real time      0.0048
    SETDIJ:  cpu time      0.0017: real time      0.0018
     EDDAV:  cpu time      3.7962: real time      3.8119
       DOS:  cpu time      0.0049: real time      0.0049
    CHARGE:  cpu time      0.0859: real time      0.0862
    MIXING:  cpu time      0.0003: real time      0.0003
    --------------------------------------------
      LOOP:  cpu time      3.8935: real time      3.9098

 eigenvalue-minimisations  : 22312
 total energy-change (2. order) : 0.5247676E+00  (-0.1292783E+01)
 number of electron     210.9999824 magnetization 
 augmentation part       51.9121934 magnetization 

 Broyden mixing:
  rms(total) = 0.93915E+00    rms(broyden)= 0.93890E+00
  rms(prec ) = 0.20490E+01
  weight for this iteration     100.00

 eigenvalues of (default mixing * dielectric matrix)
  average eigenvalue GAMMA=   1.1356
  1.6105  0.6607

 Free energy of the ion-electron system (eV)
  ---------------------------------------------------
  alpha Z        PSCENC =      1950.09657029
  Ewald energy   TEWEN  =    -22245.56836594
  -Hartree energ DENC   =     -3902.76968846
  -exchange      EXHF   =         0.00000000
  -V(xc)+E(xc)   XCENC  =       809.51538310
  PAW double counting   =     26918.33336295   -26658.68362034
  entropy T*S    EENTRO =        -0.00316606
  eigenvalues    EBANDS =     -3310.31071907
  atomic energy  EATOM  =     26247.61475506
  Solvation  Ediel_sol  =         0.00000000
  ---------------------------------------------------
  free energy    TOTEN  =      -191.77548847 eV

  energy without entropy =     -191.77232241  energy(sigma->0) =     -191.77390544


--------------------------------------------------------------------------------------------------------




--------------------------------------- Iteration      1(   8)  ---------------------------------------


    POTLOK:  cpu time      0.0044: real time      0.0046
    SETDIJ:  cpu time      0.0018: real time      0.0018
     EDDAV:  cpu time      3.5239: real time      3.5386
       DOS:  cpu time      0.0050: real time      0.0051
    CHARGE:  cpu time      0.0841: real time      0.0845
    MIXING:  cpu time      0.0003: real time      0.0003
    --------------------------------------------
      LOOP:  cpu time      3.6195: real time      3.6348

 eigenvalue-minimisations  : 20376
 total energy-change (2. order) : 0.1522544E+01  (-0.6469057E+00)
 number of electron     210.9999817 magnetization 
 augmentation part       52.3750691 magnetization 

 Broyden mixing:
  rms(total) = 0.37990E+00    rms(broyden)= 0.37950E+00
  rms(prec ) = 0.61706E+00
  weight for this iteration     100.00

 eigenvalues of (default mixing * dielectric matrix)
  average eigenvalue GAMMA=   1.1324
  1.7939  1.1818  0.4216

 Free energy of the ion-electron system (eV)
  ---------------------------------------------------
  alpha Z        PSCENC =      1950.09657029
  Ewald energy   TEWEN  =    -22245.56836594
  -Hartree energ DENC   =     -3863.57731049
  -exchange      EXHF   =         0.00000000
  -V(xc)+E(xc)   XCENC  =       807.81668285
  PAW double counting   =     27609.47665193   -27356.15559052
  entropy T*S    EENTRO =        -0.00251873
  eigenvalues    EBANDS =     -3339.95381925
  atomic energy  EATOM  =     26247.61475506
  Solvation  Ediel_sol  =         0.00000000
  ---------------------------------------------------
  free energy    TOTEN  =      -190.25294480 eV

  energy without entropy =     -190.25042607  energy(sigma->0) =     -190.25168543


--------------------------------------------------------------------------------------------------------




--------------------------------------- Iteration      1(   9)  ---------------------------------------


    POTLOK:  cpu time      0.0045: real time      0.0046
    SETDIJ:  cpu time      0.0018: real time      0.0018
     EDDAV:  cpu time      3.6471: real time      3.6625
       DOS:  cpu time      0.0053: real time      0.0053
    CHARGE:  cpu time      0.0870: real time      0.0873
    MIXING:  cpu time      0.0003: real time      0.0003
    --------------------------------------------
      LOOP:  cpu time      3.7459: real time      3.7618

 eigenvalue-minimisations  : 21248
 total energy-change (2. order) : 0.2190666E-01  (-0.1221859E+00)
 number of electron     210.9999817 magnetization 
 augmentation part       52.4723419 magnetization 

 Broyden mixing:
  rms(total) = 0.30020E+00    rms(broyden)= 0.30018E+00
  rms(prec ) = 0.44324E+00
  weight for this iteration     100.00

 eigenvalues of (default mixing * dielectric matrix)
  average eigenvalue GAMMA=   1.1446
  2.0753  1.5669  0.5548  0.3814

 Free energy of the ion-electron system (eV)
  ---------------------------------------------------
  alpha Z        PSCENC =      1950.09657029
  Ewald energy   TEWEN  =    -22245.56836594
  -Hartree energ DENC   =     -3855.25244549
  -exchange      EXHF   =         0.00000000
  -V(xc)+E(xc)   XCENC  =       807.44321462
  PAW double counting   =     27945.83561281   -27694.43063056
  entropy T*S    EENTRO =        -0.00236483
  eigenvalues    EBANDS =     -3345.96738411
  atomic energy  EATOM  =     26247.61475506
  Solvation  Ediel_sol  =         0.00000000
  ---------------------------------------------------
  free energy    TOTEN  =      -190.23103814 eV

  energy without entropy =     -190.22867332  energy(sigma->0) =     -190.22985573


--------------------------------------------------------------------------------------------------------




--------------------------------------- Iteration      1(  10)  ---------------------------------------


    POTLOK:  cpu time      0.0044: real time      0.0046
    SETDIJ:  cpu time      0.0017: real time      0.0017
     EDDAV:  cpu time      3.6381: real time      3.6531
       DOS:  cpu time      0.0050: real time      0.0050
    CHARGE:  cpu time      0.0845: real time      0.0847
    MIXING:  cpu time      0.0003: real time      0.0003
    --------------------------------------------
      LOOP:  cpu time      3.7341: real time      3.7495

 eigenvalue-minimisations  : 21304
 total energy-change (2. order) : 0.4221808E-01  (-0.3273256E-01)
 number of electron     210.9999818 magnetization 
 augmentation part       52.4243350 magnetization 

 Broyden mixing:
  rms(total) = 0.14056E+00    rms(broyden)= 0.14053E+00
  rms(prec ) = 0.22425E+00
  weight for this iteration     100.00

 eigenvalues of (default mixing * dielectric matrix)
  average eigenvalue GAMMA=   1.1476
  2.3701  1.7435  0.8117  0.4062  0.4062

 Free energy of the ion-electron system (eV)
  ---------------------------------------------------
  alpha Z        PSCENC =      1950.09657029
  Ewald energy   TEWEN  =    -22245.56836594
  -Hartree energ DENC   =     -3855.57592773
  -exchange      EXHF   =         0.00000000
  -V(xc)+E(xc)   XCENC  =       807.44855448
  PAW double counting   =     28163.42511423   -27912.75735796
  entropy T*S    EENTRO =        -0.00265286
  eigenvalues    EBANDS =     -3344.86950963
  atomic energy  EATOM  =     26247.61475506
  Solvation  Ediel_sol  =         0.00000000
  ---------------------------------------------------
  free energy    TOTEN  =      -190.18882006 eV

  energy without entropy =     -190.18616720  energy(sigma->0) =     -190.18749363


--------------------------------------------------------------------------------------------------------




--------------------------------------- Iteration      1(  11)  ---------------------------------------


    POTLOK:  cpu time      0.0044: real time      0.0046
    SETDIJ:  cpu time      0.0018: real time      0.0018
     EDDAV:  cpu time      3.6242: real time      3.6390
       DOS:  cpu time      0.0052: real time      0.0052
    CHARGE:  cpu time      0.0880: real time      0.0884
    MIXING:  cpu time      0.0003: real time      0.0003
    --------------------------------------------
      LOOP:  cpu time      3.7239: real time      3.7393

 eigenvalue-minimisations  : 21200
 total energy-change (2. order) : 0.9208948E-02  (-0.1007019E-01)
 number of electron     210.9999818 magnetization 
 augmentation part       52.4007094 magnetization 

 Broyden mixing:
  rms(total) = 0.49313E-01    rms(broyden)= 0.49275E-01
  rms(prec ) = 0.95363E-01
  weight for this iteration     100.00

 eigenvalues of (default mixing * dielectric matrix)
  average eigenvalue GAMMA=   1.0758
  2.4603  1.7649  0.9238  0.4739  0.4739  0.3579

 Free energy of the ion-electron system (eV)
  ---------------------------------------------------
  alpha Z        PSCENC =      1950.09657029
  Ewald energy   TEWEN  =    -22245.56836594
  -Hartree energ DENC   =     -3856.93582869
  -exchange      EXHF   =         0.00000000
  -V(xc)+E(xc)   XCENC  =       807.50924386
  PAW double counting   =     28233.31573223   -27982.79327714
  entropy T*S    EENTRO =        -0.00236675
  eigenvalues    EBANDS =     -3343.41607404
  atomic energy  EATOM  =     26247.61475506
  Solvation  Ediel_sol  =         0.00000000
  ---------------------------------------------------
  free energy    TOTEN  =      -190.17961111 eV

  energy without entropy =     -190.17724436  energy(sigma->0) =     -190.17842773


--------------------------------------------------------------------------------------------------------




--------------------------------------- Iteration      1(  12)  ---------------------------------------


    POTLOK:  cpu time      0.0044: real time      0.0046
    SETDIJ:  cpu time      0.0020: real time      0.0020
     EDDAV:  cpu time      3.6513: real time      3.6659
       DOS:  cpu time      0.0053: real time      0.0053
[...]
     33     -26.0374      2.00000
     34     -25.9344      2.00000
     35     -25.9273      2.00000
     36     -25.9011      2.00000
     37     -25.8959      2.00000
     38     -25.8663      2.00000
     39     -25.8569      2.00000
     40     -25.8432      2.00000
     41     -25.8217      2.00000
     42     -25.8089      2.00000
     43     -25.6828      2.00000
     44     -25.6383      2.00000
     45     -25.6089      2.00000
     46     -25.2094      2.00000
     47     -25.2058      2.00000
     48     -25.0924      2.00000
     49     -25.0262      2.00000
     50     -25.0197      2.00000
     51     -24.9967      2.00000
     52     -24.9768      2.00000
     53     -24.9430      2.00000
     54     -24.9189      2.00000
     55     -24.8472      2.00000
     56     -24.7497      2.00000
     57     -24.7433      2.00000
     58     -21.6056      2.00000
     59     -21.5962      2.00000
     60     -21.5877      2.00000
     61       3.1748      2.00000
     62       3.8145      2.00000
     63       3.8294      2.00000
     64       4.1957      2.00000
     65       4.5538      2.00000
     66       4.6551      2.00000
     67       4.8935      2.00000
     68       5.5312      2.00000
     69       5.9241      2.00000
     70       5.9590      2.00000
     71       6.0162      2.00000
     72       6.0307      2.00000
     73       6.0714      2.00000
     74       6.1415      2.00000
     75       6.2280      2.00000
     76       6.2844      2.00000
     77       6.3164      2.00000
     78       6.3459      2.00000
     79       6.3670      2.00000
     80       6.3883      2.00000
     81       6.7405      2.00000
     82       6.7579      2.00000
     83       6.8306      2.00000
     84       6.8882      2.00000
     85       6.9128      2.00000
     86       6.9344      2.00000
     87       6.9449      2.00000
     88       6.9938      2.00000
     89       7.0066      2.00000
     90       7.0392      2.00000
     91       7.0672      2.00000
     92       7.1025      2.00000
     93       7.1444      2.00000
     94       7.1525      2.00000
     95       7.1978      2.00000
     96       7.2097      2.00000
     97       7.2268      2.00000
     98       7.2539      2.00000
     99       7.3214      2.00000
    100       7.3813      2.00000
    101       7.3999      2.00000
    102       7.4553      2.00000
    103       7.4710      2.00000
    104       7.5915      2.00000
    105       7.5977      2.00000
    106       7.6332      2.00000
    107       7.6719      2.00000
    108       7.9979      2.00000
    109      10.6161      0.00000
    110      10.6712      0.00000
    111      10.8178      0.00000
    112      10.8624      0.00000
    113      10.8892      0.00000
    114      11.0115      0.00000
    115      11.0259      0.00000
    116      11.1246      0.00000
    117      11.1483      0.00000
    118      11.1734      0.00000
    119      11.2236      0.00000
    120      11.3331      0.00000
    121      11.3443      0.00000
    122      11.3694      0.00000
    123      11.4199      0.00000
    124      11.4778      0.00000
    125      11.5422      0.00000
    126      11.7035      0.00000
    127      11.7336      0.00000
    128      11.8805      0.00000

 k-point    63 :       0.4000   -0.4000    0.4000
  band No.  band energies     occupation 
      1     -64.8859      2.00000
      2     -64.8539      2.00000
      3     -64.8100      2.00000
      4     -64.8059      2.00000
      5     -64.7768      2.00000
      6     -64.7709      2.00000
      7     -51.8078      2.00000
      8     -51.7853      2.00000
      9     -51.7766      2.00000
     10     -51.7370      2.00000
     11     -51.7222      2.00000
     12     -45.5134      2.00000
     13     -29.2744      2.00000
     14     -29.2236      2.00000
     15     -29.2112      2.00000
     16     -29.1818      2.00000
     17     -29.1555      2.00000
     18     -29.1104      2.00000
     19     -29.0324      2.00000
     20     -29.0163      2.00000
     21     -29.0008      2.00000
     22     -28.9932      2.00000
     23     -28.9797      2.00000
     24     -28.9770      2.00000
     25     -28.9591      2.00000
     26     -28.9213      2.00000
     27     -28.8580      2.00000
     28     -28.8239      2.00000
     29     -28.8194      2.00000
     30     -28.7592      2.00000
     31     -26.1272      2.00000
     32     -26.1026      2.00000
     33     -26.0325      2.00000
     34     -25.9322      2.00000
     35     -25.9207      2.00000
     36     -25.9004      2.00000
     37     -25.8977      2.00000
     38     -25.8670      2.00000
     39     -25.8568      2.00000
     40     -25.8420      2.00000
     41     -25.8214      2.00000
     42     -25.8082      2.00000
     43     -25.6770      2.00000
     44     -25.6525      2.00000
     45     -25.6088      2.00000
     46     -25.2117      2.00000
     47     -25.2030      2.00000
     48     -25.0916      2.00000
     49     -25.0260      2.00000
     50     -25.0170      2.00000
     51     -24.9946      2.00000
     52     -24.9764      2.00000
     53     -24.9430      2.00000
     54     -24.9233      2.00000
     55     -24.8477      2.00000
     56     -24.7496      2.00000
     57     -24.7430      2.00000
     58     -21.6056      2.00000
     59     -21.5962      2.00000
     60     -21.5877      2.00000
     61       3.1578      2.00000
     62       3.8189      2.00000
     63       3.9679      2.00000
     64       4.0478      2.00000
     65       4.5535      2.00000
     66       4.6842      2.00000
     67       4.8770      2.00000
     68       5.5401      2.00000
     69       5.9342      2.00000
     70       5.9608      2.00000
     71       6.0045      2.00000
     72       6.0283      2.00000
     73       6.0793      2.00000
     74       6.1363      2.00000
     75       6.2690      2.00000
     76       6.2806      2.00000
     77       6.3038      2.00000
     78       6.3335      2.00000
     79       6.3550      2.00000
     80       6.3890      2.00000
     81       6.7398      2.00000
     82       6.7565      2.00000
     83       6.8247      2.00000
     84       6.8800      2.00000
     85       6.8829      2.00000
     86       6.9534      2.00000
     87       6.9652      2.00000
     88       6.9981      2.00000
     89       7.0238      2.00000
     90       7.0345      2.00000
     91       7.0715      2.00000
     92       7.1090      2.00000
     93       7.1282      2.00000
     94       7.1505      2.00000
     95       7.1757      2.00000
     96       7.1821      2.00000
     97       7.2195      2.00000
     98       7.2477      2.00000
     99       7.3395      2.00000
    100       7.3617      2.00000
    101       7.4294      2.00000
    102       7.4638      2.00000
    103       7.5387      2.00000
    104       7.5836      2.00000
    105       7.6026      2.00000
    106       7.6260      2.00000
    107       7.6538      2.00000
    108       7.9868      2.00000
    109      10.6795      0.00000
    110      10.7086      0.00000
    111      10.7844      0.00000
    112      10.8310      0.00000
    113      10.9669      0.00000
    114      11.0041      0.00000
    115      11.0246      0.00000
    116      11.0601      0.00000
    117      11.1200      0.00000
    118      11.1568      0.00000
    119      11.2420      0.00000
    120      11.2635      0.00000
    121      11.3127      0.00000
    122      11.3638      0.00000
    123      11.4198      0.00000
    124      11.4961      0.00000
    125      11.5730      0.00000
    126      11.6519      0.00000
    127      11.7241      0.00000
    128      11.8664      0.00000


--------------------------------------------------------------------------------------------------------


 soft charge-density along one line, spin component           1
         0         1         2         3         4         5         6         7         8         9
 total charge-density along one line
 
 pseudopotential strength for first ion, spin component:           1
  5.847 -20.606   0.001  -0.001  -0.002  -0.003   0.003   0.004
-20.606   9.491   0.002  -0.002  -0.003  -0.000   0.000   0.000
  0.001   0.002  -9.930   0.000   0.002   6.225  -0.000  -0.002
 -0.001  -0.002   0.000  -9.929  -0.002  -0.000   6.224   0.002
 -0.002  -0.003   0.002  -0.002  -9.927  -0.002   0.002   6.222
 -0.003  -0.000   6.225  -0.000  -0.002   7.796   0.000   0.002
  0.003   0.000  -0.000   6.224   0.002   0.000   7.797  -0.002
  0.004   0.000  -0.002   0.002   6.222   0.002  -0.002   7.798
  0.001   0.001  -0.002  -0.000   0.001   0.002   0.001  -0.002
  0.000   0.000  -0.001   0.001  -0.000   0.002  -0.002   0.001
 -0.000  -0.000  -0.001  -0.001   0.001   0.001   0.001  -0.001
 -0.001  -0.001  -0.000  -0.002  -0.001   0.001   0.002   0.002
  0.001   0.001  -0.001  -0.000  -0.002   0.001   0.000   0.002
  0.002   0.001  -0.002  -0.001   0.002   0.003   0.001  -0.002
  0.000   0.000  -0.002   0.002  -0.001   0.002  -0.002   0.001
 -0.000  -0.000  -0.001  -0.002   0.001   0.001   0.002  -0.001
 -0.002  -0.001  -0.001  -0.003  -0.002   0.001   0.003   0.002
  0.001   0.001  -0.001  -0.000  -0.002   0.002   0.000   0.002
 total augmentation occupancy for first ion, spin component:           1
  1.995  -0.049   0.000  -0.000  -0.000  -0.000   0.000  -0.000   0.005   0.003  -0.001  -0.005   0.002  -0.004  -0.002   0.001
 -0.049   1.282  -0.000   0.000  -0.000  -0.001   0.001   0.002   0.015  -0.003  -0.003  -0.015   0.003  -0.007   0.006  -0.000
  0.000  -0.000   1.996  -0.000  -0.000  -0.033   0.001   0.001  -0.001   0.002  -0.001   0.012  -0.002   0.001  -0.001   0.001
 -0.000   0.000  -0.000   1.996   0.000   0.001  -0.033  -0.001   0.012  -0.001  -0.003  -0.001   0.000  -0.007   0.001   0.002
 -0.000  -0.000  -0.000   0.000   1.996   0.001  -0.001  -0.032  -0.001   0.012   0.003   0.002  -0.005   0.001  -0.007  -0.002
 -0.000  -0.001  -0.033   0.001   0.001   0.071  -0.001  -0.001   0.011   0.003   0.003  -0.010   0.005  -0.006  -0.001  -0.001
  0.000   0.001   0.001  -0.033  -0.001  -0.001   0.071   0.001  -0.011  -0.004   0.006   0.012  -0.000   0.005   0.002  -0.002
 -0.000   0.002   0.001  -0.001  -0.032  -0.001   0.001   0.070  -0.004  -0.011  -0.005   0.004   0.008   0.002   0.005   0.002
  0.005   0.015  -0.001   0.012  -0.001   0.011  -0.011  -0.004   3.354  -0.035  -0.034  -0.027  -0.000  -1.411   0.013   0.016
  0.003  -0.003   0.002  -0.001   0.012   0.003  -0.004  -0.011  -0.035   3.346   0.007   0.038  -0.012   0.013  -1.409  -0.002
 -0.001  -0.003  -0.001  -0.003   0.003   0.003   0.006  -0.005  -0.034   0.007   2.538  -0.019  -0.006   0.015  -0.002  -1.154
 -0.005  -0.015   0.012  -0.001   0.002  -0.010   0.012   0.004  -0.027   0.038  -0.019   3.370  -0.031   0.020  -0.014   0.008
  0.002   0.003  -0.002   0.000  -0.005   0.005  -0.000   0.008  -0.000  -0.012  -0.006  -0.031   2.549  -0.000   0.004  -0.001
 -0.004  -0.007   0.001  -0.007   0.001  -0.006   0.005   0.002  -1.411   0.013   0.015   0.020  -0.000   0.606  -0.005  -0.007
 -0.002   0.006  -0.001   0.001  -0.007  -0.001   0.002   0.005   0.013  -1.409  -0.002  -0.014   0.004  -0.005   0.606   0.001
  0.001  -0.000   0.001   0.002  -0.002  -0.001  -0.002   0.002   0.016  -0.002  -1.154   0.008  -0.001  -0.007   0.001   0.531
  0.004   0.007  -0.007   0.001  -0.001   0.005  -0.006  -0.002   0.020  -0.014   0.008  -1.417   0.013  -0.012   0.006  -0.003
 -0.002   0.001   0.002  -0.000   0.003  -0.002   0.000  -0.004  -0.000   0.004  -0.001   0.014  -1.153   0.000  -0.001   0.002


------------------------ aborting loop because EDIFF is reached ----------------------------------------


    CHARGE:  cpu time      0.0876: real time      0.0879
    FORLOC:  cpu time      0.0005: real time      0.0005
    FORNL :  cpu time      0.8140: real time      0.8167
    STRESS:  cpu time      1.0204: real time      1.0241
    FORCOR:  cpu time      0.0064: real time      0.0065
    FORHAR:  cpu time      0.0014: real time      0.0014
    MIXING:  cpu time      0.0007: real time      0.0007
    OFIELD:  cpu time      0.0000: real time      0.0000

  FORCE on cell =-STRESS in cart. coord.  units (eV):
  Direction    XX          YY          ZZ          XY          YZ          ZX
  --------------------------------------------------------------------------------------
  Alpha Z  1950.09657  1950.09657  1950.09657
  Ewald   -7412.12668 -7421.38556 -7412.12668    -6.32305    -6.32305   -12.64610
  Hartree  1287.12519  1281.09994  1288.41403    -5.40751    -6.36770   -12.16620
  E(xc)    -975.36655  -975.37433  -975.37078    -0.00496     0.01110     0.03973
  Local    1738.76571  1753.84441  1737.15161    12.00298    12.37211    23.40465
  n-local  -348.82230  -348.06720  -348.30401    -0.16467    -0.09509     0.67661
  augment   670.62844   670.71003   670.69146    -0.04119     0.13377     0.24268
  Kinetic  3057.06151  3056.85227  3057.02960    -0.01718     0.00551     0.12743
  Fock        0.00000     0.00000     0.00000     0.00000     0.00000     0.00000
  -------------------------------------------------------------------------------------
  Total     -32.63811   -32.22388   -32.41820     0.04442    -0.26334    -0.32120
  in kB    -183.55149  -181.22192  -182.31476     0.24979    -1.48100    -1.80640
  external pressure =     -182.36 kB  Pullay stress =        0.00 kB


 VOLUME and BASIS-vectors are now :
 -----------------------------------------------------------------------------
  energy-cutoff  :      250.00
  volume of cell :      284.89
      direct lattice vectors                 reciprocal lattice vectors
     6.580000000  0.000000000  0.000000000     0.151975684  0.000000000  0.000000000
     0.000000000  6.580000000  0.000000000     0.000000000  0.151975684  0.000000000
     0.000000000  0.000000000  6.580000000     0.000000000  0.000000000  0.151975684

  length of vectors
     6.580000000  6.580000000  6.580000000     0.151975684  0.151975684  0.151975684


 FORCES acting on ions
    electron-ion (+dipol)            ewald-force                    non-local-force                 convergence-correction
 -----------------------------------------------------------------------------------------------
   -.309E+02 0.308E+02 -.309E+02   0.306E+02 -.306E+02 0.306E+02   -.595E-01 -.107E-01 0.172E-01   -.198E-04 0.193E-03 0.237E-03
   0.220E+02 -.442E+02 0.220E+02   -.220E+02 0.439E+02 -.220E+02   0.129E-01 -.712E-01 0.126E-01   0.163E-03 0.913E-04 0.255E-04
   0.220E+02 0.443E+02 0.220E+02   -.220E+02 -.439E+02 -.220E+02   0.908E-02 -.512E-01 -.480E-03   0.152E-03 -.893E-04 0.251E-04
   0.329E+02 0.330E+02 -.330E+02   -.329E+02 -.329E+02 0.329E+02   0.116E+00 0.421E-01 -.510E-01   0.191E-04 0.200E-03 0.259E-03
   -.330E+02 -.331E+02 0.331E+02   0.329E+02 0.329E+02 -.329E+02   -.934E-01 -.596E-02 0.139E-01   -.324E-04 -.175E-03 -.248E-03
   0.220E+02 0.442E+02 -.220E+02   -.220E+02 -.439E+02 0.220E+02   0.104E-01 0.719E-01 -.102E-02   0.162E-03 -.119E-03 -.302E-04
   0.173E+02 -.350E+02 -.173E+02   -.173E+02 0.345E+02 0.173E+02   0.114E-01 0.660E-01 -.875E-02   0.144E-03 0.786E-04 -.234E-04
   -.173E+02 0.351E+02 -.173E+02   0.173E+02 -.345E+02 0.173E+02   -.192E-02 -.993E-01 -.109E-01   -.137E-03 -.115E-03 -.232E-04
   -.173E+02 -.350E+02 0.173E+02   0.173E+02 0.345E+02 -.173E+02   -.623E-03 0.831E-01 0.809E-02   -.146E-03 0.659E-04 0.299E-04
   0.262E+02 0.262E+02 0.262E+02   -.259E+02 -.259E+02 -.259E+02   0.247E-01 -.102E-01 -.166E-01   0.608E-04 0.183E-03 -.193E-03
   0.331E+02 -.331E+02 0.331E+02   -.329E+02 0.329E+02 -.329E+02   0.286E-01 -.515E-01 0.477E-01   0.107E-04 -.182E-03 -.243E-03
   -.331E+02 -.331E+02 -.331E+02   0.329E+02 0.329E+02 0.329E+02   -.583E-01 -.486E-01 -.484E-01   -.467E-04 -.176E-03 0.258E-03
   -.220E+02 0.442E+02 0.220E+02   0.220E+02 -.439E+02 -.220E+02   0.262E-01 0.162E+00 -.181E-01   -.166E-03 -.157E-03 0.202E-04
   -.331E+02 0.331E+02 0.331E+02   0.329E+02 -.329E+02 -.329E+02   -.529E-01 0.346E-01 0.403E-01   -.734E-04 0.184E-03 -.259E-03
   -.220E+02 -.441E+02 -.220E+02   0.220E+02 0.439E+02 0.220E+02   0.251E-01 -.150E+00 0.227E-01   -.201E-03 0.178E-03 -.399E-04
   0.331E+02 -.332E+02 -.331E+02   -.329E+02 0.329E+02 0.329E+02   0.209E-01 -.281E-02 -.876E-02   0.627E-04 -.169E-03 0.237E-03
 -----------------------------------------------------------------------------------------------
   -.188E-01 0.425E-01 0.139E-02   0.256E-12 -.128E-12 -.639E-13   0.188E-01 -.425E-01 -.141E-02   -.481E-04 -.662E-05 0.312E-04
 
 
 POSITION                                       TOTAL-FORCE (eV/Angst)
 -----------------------------------------------------------------------------------
      4.93500      1.64500      1.64500        -0.336559      0.239534     -0.256047
      3.29000      0.00000      0.00000         0.005589     -0.316314      0.011619
      3.29000      3.29000      0.00000         0.017795      0.368003      0.010641
      1.64500      1.64500      1.64500         0.118576      0.127204     -0.150779
      4.93500      4.93500      4.93500        -0.167038     -0.180825      0.164873
      3.29000      3.29000      3.29000         0.011513      0.340082     -0.002978
      3.29000      0.00000      3.29000         0.052069     -0.452192     -0.042932
      0.00000      3.29000      3.29000        -0.045051      0.455140     -0.043341
      0.00000      0.00000      0.00000        -0.044377     -0.430798      0.053033
      1.64500      1.64500      4.93500         0.365060      0.266359      0.285416
      1.64500      4.93500      4.93500         0.176321     -0.209683      0.193471
      4.93500      4.93500      1.64500        -0.191640     -0.220400     -0.206591
      0.00000      3.29000      0.00000        -0.010029      0.411169      0.007645
      4.93500      1.64500      4.93500        -0.156556      0.175617      0.186782
      0.00000      0.00000      3.29000        -0.002398     -0.351110     -0.000071
      1.64500      4.93500      1.64500         0.206724     -0.221786     -0.210740
 -----------------------------------------------------------------------------------
    total drift:                                0.000015     -0.000003      0.000006


--------------------------------------------------------------------------------------------------------



  FREE ENERGIE OF THE ION-ELECTRON SYSTEM (eV)
  ---------------------------------------------------
  free  energy   TOTEN  =      -190.17647582 eV

  energy  without entropy=     -190.17405333  energy(sigma->0) =     -190.17526458
 


--------------------------------------------------------------------------------------------------------


    POTLOK:  cpu time      0.0061: real time      0.0084


--------------------------------------------------------------------------------------------------------


     LOOP+:  cpu time     84.6287: real time     86.1201
    4ORBIT:  cpu time      0.0000: real time      0.0000

 total amount of memory used by VASP MPI-rank0    48253. kBytes
=======================================================================

   base      :      30000. kBytes
   nonl-proj :       8332. kBytes
   fftplans  :        456. kBytes
   grid      :        919. kBytes
   one-center:         31. kBytes
   wavefun   :       8515. kBytes
 
  
  
 General timing and accounting informations for this job:
 ========================================================
  
                  Total CPU time used (sec):       88.431
                            User time (sec):       87.031
                          System time (sec):        1.401
                         Elapsed time (sec):       91.262
  
                   Maximum memory used (kb):       89600.
                   Average memory used (kb):          N/A
  
                          Minor page faults:         8423
                          Major page faults:            0
                 Voluntary context switches:          217
