 vasp.6.3.1 04May22 (build Jul 26 2022 04:02:40) complex                        
  
 executed on             LinuxIFC date 2023.11.30  11:16:01
 running on   48 total cores
 distrk:  each k-point on   48 cores,    1 groups
 distr:  one band on NCORE=  12 cores,    4 groups


--------------------------------------------------------------------------------------------------------


 INCAR:
   ISTART = 0
   NWRITE = 2
   PREC = Accurate
   ENCUT = 250
   GGA = PE
   NSW = 0
   ISIF = 2
   ISYM = 2
   NBLOCK = 1
   KBLOCK = 1
   IBRION = -1
   NELM = 80
   EDIFF = 1E-08
   EDIFFG = -0.01
   ALGO = Normal
   LDIAG = .TRUE.
   LREAL = .FALSE.
   ISMEAR = 0
   SIGMA = 0.02
   ICHARG = 2
   LPLANE = .TRUE.
   NPAR = 4
   LSCALU = .FALSE.
   NSIM = 4
   LWAVE = .FALSE.
   LCHARG = .FALSE.
   ICORELEVEL = 1

 POTCAR:    PAW_PBE Nb_sv 25May2007               
 POTCAR:    PAW_PBE Mo_sv 02Feb2006               
 POTCAR:    PAW_PBE Ta_pv 07Sep2000               
 POTCAR:    PAW_PBE W_sv 04Sep2015                
 POTCAR:    PAW_PBE Nb_sv 25May2007               
   SHA256 =  0e8fc07c9fcd1164cf2ade22d0399fd28f85e91cd773dfa6cf24839a48c95e24 Nb_sv/POTCAR          
   COPYR  = (c) Copyright 25May2007 Georg Kresse                                                    
   COPYR  = This file is part of the software VASP. Any use, copying, and all other rights are regul
   COPYR  = If you do not have a valid VASP license, you may not use, copy or distribute this file. 
   VRHFIN =Nb: 4p5s4d                                                                               
   LEXCH  = PE                                                                                      
   EATOM  =  1555.1913 eV,  114.3033 Ry                                                             
                                                                                                    
   TITEL  = PAW_PBE Nb_sv 25May2007                                                                 
   LULTRA =        F    use ultrasoft PP ?                                                          
   IUNSCR =        1    unscreen: 0-lin 1-nonlin 2-no                                               
   RPACOR =    1.800    partial core radius                                                         
   POMASS =   92.910; ZVAL   =   13.000    mass and valenz                                          
   RCORE  =    2.400    outmost cutoff radius                                                       
   RWIGS  =    2.400; RWIGS  =    1.270    wigner-seitz radius (au A)                               
   ENMAX  =  293.235; ENMIN  =  219.927 eV                                                          
   ICORE  =        3    local potential                                                             
   LCOR   =        T    correct aug charges                                                         
   LPAW   =        T    paw PP                                                                      
   EAUG   =  455.659                                                                                
   DEXC   =    0.000                                                                                
   RMAX   =    2.456    core radius for proj-oper                                                   
   RAUG   =    1.300    factor for augmentation sphere                                              
   RDEP   =    2.451    radius for radial grids                                                     
   RDEPT  =    1.956    core radius for aug-charge                                                  
                                                                                                    
   Atomic configuration                                                                             
   11 entries                                                                                       
     n  l   j            E        occ.                                                              
     1  0  0.50    -18805.2457   2.0000                                                             
     2  0  0.50     -2630.2869   2.0000                                                             
     2  1  1.50     -2348.4046   6.0000                                                             
     3  0  0.50      -438.8757   2.0000                                                             
     3  1  1.50      -346.7588   6.0000                                                             
     3  2  2.50      -196.2560  10.0000                                                             
     4  0  0.50       -58.3859   2.0000                                                             
     5  0  0.50        -3.9816   1.0000                                                             
     4  1  1.50       -34.5141   6.0000                                                             
     4  2  2.50        -3.0408   4.0000                                                             
     4  3  2.50        -1.3606   0.0000                                                             
   Description                                                                                      
     l       E           TYP  RCUT    TYP  RCUT                                                     
     0    -58.3859094     23  2.200                                                                 
     0     -3.9816262     23  2.200                                                                 
     1    -34.5140738     23  2.200                                                                 
     1     13.6058260     23  2.200                                                                 
     2     -3.0408010     23  2.200                                                                 
     2     -0.1283038     23  2.200                                                                 
     3     -1.3605826     23  2.400                                                                 
  local pseudopotential read in
  partial core-charges read in
  partial kinetic energy density read in
  atomic valenz-charges read in
  non local Contribution for L=           0  read in
    real space projection operators read in
  non local Contribution for L=           0  read in
    real space projection operators read in
  non local Contribution for L=           1  read in
    real space projection operators read in
  non local Contribution for L=           1  read in
    real space projection operators read in
  non local Contribution for L=           2  read in
    real space projection operators read in
  non local Contribution for L=           2  read in
    real space projection operators read in
    PAW grid and wavefunctions read in
 
   number of l-projection  operators is LMAX  =           6
   number of lm-projection operators is LMMAX =          18
 
 POTCAR:    PAW_PBE Mo_sv 02Feb2006               
   SHA256 =  2731df97e41766cc617548c5a8267718fdef1f509ac6bafa01e745abea2bdfaa Mo_sv/POTCAR          
   COPYR  = (c) Copyright 02Feb2006 Georg Kresse                                                    
   COPYR  = This file is part of the software VASP. Any use, copying, and all other rights are regul
   COPYR  = If you do not have a valid VASP license, you may not use, copy or distribute this file. 
   VRHFIN =Mo: 4p5s4d                                                                               
   LEXCH  = PE                                                                                      
   EATOM  =  1862.2866 eV,  136.8742 Ry                                                             
                                                                                                    
   TITEL  = PAW_PBE Mo_sv 02Feb2006                                                                 
   LULTRA =        F    use ultrasoft PP ?                                                          
   IUNSCR =        1    unscreen: 0-lin 1-nonlin 2-no                                               
   RPACOR =    2.200    partial core radius                                                         
   POMASS =   95.940; ZVAL   =   14.000    mass and valenz                                          
   RCORE  =    2.500    outmost cutoff radius                                                       
   RWIGS  =    2.750; RWIGS  =    1.455    wigner-seitz radius (au A)                               
   ENMAX  =  242.676; ENMIN  =  182.007 eV                                                          
   ICORE  =        3    local potential                                                             
   LCOR   =        T    correct aug charges                                                         
   LPAW   =        T    paw PP                                                                      
   EAUG   =  446.014                                                                                
   DEXC   =    0.000                                                                                
   RMAX   =    2.563    core radius for proj-oper                                                   
   RAUG   =    1.300    factor for augmentation sphere                                              
   RDEP   =    2.641    radius for radial grids                                                     
   RDEPT  =    2.031    core radius for aug-charge                                                  
                                                                                                    
   Atomic configuration                                                                             
   11 entries                                                                                       
     n  l   j            E        occ.                                                              
     1  0  0.50    -19819.0341   2.0000                                                             
     2  0  0.50     -2799.0127   2.0000                                                             
     2  1  1.50     -2502.0276   6.0000                                                             
     3  0  0.50      -476.4449   2.0000                                                             
     3  1  1.50      -379.1496   6.0000                                                             
     3  2  2.50      -220.9367  10.0000                                                             
     4  0  0.50       -64.3378   2.0000                                                             
     5  0  0.50        -4.0862   1.0000                                                             
     4  1  1.50       -38.4773   6.0000                                                             
     4  2  2.50        -3.7535   5.0000                                                             
     4  3  2.50        -1.3606   0.0000                                                             
   Description                                                                                      
     l       E           TYP  RCUT    TYP  RCUT                                                     
     0    -64.3377829     23  2.100                                                                 
     0     -4.0861640     23  2.400                                                                 
     1    -38.4772993     23  2.100                                                                 
     1     13.6058260     23  2.100                                                                 
     2     -3.7534941     23  2.400                                                                 
     2     -5.1140767     23  2.400                                                                 
     3     -4.0817478     23  2.500                                                                 
  local pseudopotential read in
  partial core-charges read in
  partial kinetic energy density read in
  atomic valenz-charges read in
  non local Contribution for L=           0  read in
    real space projection operators read in
  non local Contribution for L=           0  read in
    real space projection operators read in
  non local Contribution for L=           1  read in
    real space projection operators read in
  non local Contribution for L=           1  read in
    real space projection operators read in
  non local Contribution for L=           2  read in
    real space projection operators read in
  non local Contribution for L=           2  read in
    real space projection operators read in
    PAW grid and wavefunctions read in
 
   number of l-projection  operators is LMAX  =           6
   number of lm-projection operators is LMMAX =          18
 
 POTCAR:    PAW_PBE Ta_pv 07Sep2000               
   SHA256 =  00d0a14a36c127416459414afb8617d9754996fffa60a2465888e660b20a452f Ta_pv/POTCAR          
   COPYR  = (c) Copyright 07Sep2000 Georg Kresse                                                    
   COPYR  = This file is part of the software VASP. Any use, copying, and all other rights are regul
   COPYR  = If you do not have a valid VASP license, you may not use, copy or distribute this file. 
   VRHFIN =Ta:  5p6s5d                                                                              
   LEXCH  = PE                                                                                      
   EATOM  =  1047.1984 eV,   76.9669 Ry                                                             
                                                                                                    
   TITEL  = PAW_PBE Ta_pv 07Sep2000                                                                 
   LULTRA =        F    use ultrasoft PP ?                                                          
   IUNSCR =        1    unscreen: 0-lin 1-nonlin 2-no                                               
   RPACOR =    2.330    partial core radius                                                         
   POMASS =  180.948; ZVAL   =   11.000    mass and valenz                                          
   RCORE  =    2.500    outmost cutoff radius                                                       
   RWIGS  =    2.840; RWIGS  =    1.503    wigner-seitz radius (au A)                               
   ENMAX  =  223.667; ENMIN  =  167.750 eV                                                          
   RCLOC  =    2.205    cutoff for local pot                                                        
   LCOR   =        T    correct aug charges                                                         
   LPAW   =        T    paw PP                                                                      
   EAUG   =  377.421                                                                                
   DEXC   =    0.000                                                                                
   RMAX   =    2.551    core radius for proj-oper                                                   
   RAUG   =    1.300    factor for augmentation sphere                                              
   RDEP   =    2.526    radius for radial grids                                                     
   RDEPT  =    2.132    core radius for aug-charge                                                  
                                                                                                    
   Atomic configuration                                                                             
   15 entries                                                                                       
     n  l   j            E        occ.                                                              
     1  0  0.50    -67341.2801   2.0000                                                             
     2  0  0.50    -11566.9369   2.0000                                                             
     2  1  1.50    -10134.1175   6.0000                                                             
     3  0  0.50     -2648.5614   2.0000                                                             
     3  1  1.50     -2222.6006   6.0000                                                             
     3  2  2.50     -1726.3114  10.0000                                                             
     4  0  0.50      -538.6957   2.0000                                                             
     4  1  1.50      -399.0125   6.0000                                                             
     4  2  2.50      -220.3955  10.0000                                                             
     4  3  3.50       -23.0371  14.0000                                                             
     5  0  0.50       -71.2900   2.0000                                                             
     5  1  1.50       -37.8224   6.0000                                                             
     5  2  2.50        -2.6455   4.0000                                                             
     6  0  0.50        -4.9623   1.0000                                                             
     5  3  2.50        -1.3606   0.0000                                                             
   Description                                                                                      
     l       E           TYP  RCUT    TYP  RCUT                                                     
     1    -37.8224449     23  2.500                                                                 
     1      1.3605826     23  2.500                                                                 
     2     -2.6454718     23  2.500                                                                 
     2     -0.6258570     23  2.500                                                                 
     0     -4.9622674     23  2.500                                                                 
     0      4.7531427     23  2.500                                                                 
  local pseudopotential read in
  partial core-charges read in
  partial kinetic energy density read in
  atomic valenz-charges read in
  non local Contribution for L=           1  read in
    real space projection operators read in
  non local Contribution for L=           1  read in
    real space projection operators read in
  non local Contribution for L=           2  read in
    real space projection operators read in
  non local Contribution for L=           2  read in
    real space projection operators read in
  non local Contribution for L=           0  read in
    real space projection operators read in
  non local Contribution for L=           0  read in
    real space projection operators read in
    PAW grid and wavefunctions read in
 
   number of l-projection  operators is LMAX  =           6
   number of lm-projection operators is LMMAX =          18
 
 POTCAR:    PAW_PBE W_sv 04Sep2015                
   SHA256 =  931c2d770f65867ef30f3db3421922900fc0890ebac5c3e12f63b6a2064023d7 W_sv/POTCAR           
   COPYR  = (c) Copyright 04Sep2015 Georg Kresse                                                    
   COPYR  = This file is part of the software VASP. Any use, copying, and all other rights are regul
   COPYR  = If you do not have a valid VASP license, you may not use, copy or distribute this file. 
   VRHFIN =W : 5p6s5d                                                                               
   LEXCH  = PE                                                                                      
   EATOM  =  1865.5791 eV,  137.1162 Ry                                                             
                                                                                                    
   TITEL  = PAW_PBE W_sv 04Sep2015                                                                  
   LULTRA =        F    use ultrasoft PP ?                                                          
   IUNSCR =        1    unscreen: 0-lin 1-nonlin 2-no                                               
   RPACOR =    2.330    partial core radius                                                         
   POMASS =  183.850; ZVAL   =   14.000    mass and valenz                                          
   RCORE  =    2.500    outmost cutoff radius                                                       
   RWIGS  =    2.750; RWIGS  =    1.455    wigner-seitz radius (au A)                               
   ENMAX  =  223.057; ENMIN  =  167.293 eV                                                          
   ICORE  =        3    local potential                                                             
   LCOR   =        T    correct aug charges                                                         
   LPAW   =        T    paw PP                                                                      
   EAUG   =  373.438                                                                                
   DEXC   =    0.000                                                                                
   RMAX   =    2.565    core radius for proj-oper                                                   
   RAUG   =    1.300    factor for augmentation sphere                                              
   RDEP   =    2.539    radius for radial grids                                                     
   RDEPT  =    2.126    core radius for aug-charge                                                  
                                                                                                    
   Atomic configuration                                                                             
   15 entries                                                                                       
     n  l   j            E        occ.                                                              
     1  0  0.50    -69465.5834   2.0000                                                             
     2  0  0.50    -11986.2640   2.0000                                                             
     2  1  1.50    -10479.8613   6.0000                                                             
     3  0  0.50     -2759.0756   2.0000                                                             
     3  1  1.50     -2313.1855   6.0000                                                             
     3  2  2.50     -1801.1183  10.0000                                                             
     4  0  0.50      -567.6789   2.0000                                                             
     4  1  1.50      -421.4692   6.0000                                                             
     4  2  2.50      -236.3471  10.0000                                                             
     4  3  3.50       -31.2665  14.0000                                                             
     5  0  0.50       -77.1084   2.0000                                                             
     6  0  0.50        -5.1438   1.0000                                                             
     5  1  1.50       -41.3856   6.0000                                                             
     5  2  2.50        -3.3185   5.0000                                                             
     5  3  2.50        -1.3606   0.0000                                                             
   Description                                                                                      
     l       E           TYP  RCUT    TYP  RCUT                                                     
     0    -77.1084470     23  2.100                                                                 
     0     -5.1437956     23  2.300                                                                 
     1    -41.3855615     23  2.500                                                                 
     1     -2.7211652     23  2.500                                                                 
     2     -3.3185025     23  2.500                                                                 
     2     -1.5965151     23  2.500                                                                 
     3     -1.3605826     23  2.500                                                                 
  local pseudopotential read in
  partial core-charges read in
  partial kinetic energy density read in
  kinetic energy density of atom read in
  atomic valenz-charges read in
  non local Contribution for L=           0  read in
    real space projection operators read in
  non local Contribution for L=           0  read in
    real space projection operators read in
  non local Contribution for L=           1  read in
    real space projection operators read in
  non local Contribution for L=           1  read in
    real space projection operators read in
  non local Contribution for L=           2  read in
    real space projection operators read in
  non local Contribution for L=           2  read in
    real space projection operators read in
    PAW grid and wavefunctions read in
 
   number of l-projection  operators is LMAX  =           6
   number of lm-projection operators is LMMAX =          18
 
 -----------------------------------------------------------------------------
|                                                                             |
|               ----> ADVICE to this user running VASP <----                  |
|                                                                             |
|     You have a (more or less) 'large supercell' and for larger cells it     |
|     might be more efficient to use real-space projection operators.         |
|     Therefore, try LREAL= Auto in the INCAR file.                           |
|     Mind: For very accurate calculation, you might also keep the            |
|     reciprocal projection scheme (i.e. LREAL=.FALSE.).                      |
|                                                                             |
 -----------------------------------------------------------------------------

  PAW_PBE Nb_sv 25May2007               :
 energy of atom  1       EATOM=-1555.1913
 kinetic energy error for atom=    0.2155 (will be added to EATOM!!)
  PAW_PBE Mo_sv 02Feb2006               :
 energy of atom  2       EATOM=-1862.2866
 kinetic energy error for atom=    0.1102 (will be added to EATOM!!)
  PAW_PBE Ta_pv 07Sep2000               :
 energy of atom  3       EATOM=-1047.1984
 kinetic energy error for atom=    0.0394 (will be added to EATOM!!)
  PAW_PBE W_sv 04Sep2015                :
 energy of atom  4       EATOM=-1865.5791
 kinetic energy error for atom=    0.0589 (will be added to EATOM!!)
 
 
 POSCAR: Nb-Mo-Ta-W alloy
  positions in direct lattice
  No initial velocities read in
 exchange correlation table for  LEXCH =        8
   RHO(1)=    0.500       N(1)  =     2000
   RHO(2)=  100.500       N(2)  =     4000
 


--------------------------------------------------------------------------------------------------------


 ion  position               nearest neighbor table
   1  0.375  0.250  0.250-   5 2.85  11 2.85  12 2.85  15 2.85  16 2.85  21 2.85  28 2.85  29 2.85
                            17 3.29  17 3.29
   2  0.750  0.500  0.000-   6 2.85   7 2.85  18 2.85  19 2.85  22 2.85  24 2.85  27 2.85  30 2.85

   3  0.125  0.750  0.250-   4 2.85   8 2.85  12 2.85  16 2.85  26 2.85  28 2.85  29 2.85  32 2.85
                            19 3.29
   4  0.000  0.500  0.000-   3 2.85  10 2.85  13 2.85  19 2.85  22 2.85  24 2.85  25 2.85  27 2.85

   5  0.500  0.500  0.500-   1 2.85   6 2.85   7 2.85   9 2.85  17 2.85  18 2.85  30 2.85  31 2.85
                            16 3.29
   6  0.625  0.250  0.250-   2 2.85   5 2.85  11 2.85  14 2.85  15 2.85  20 2.85  21 2.85  23 2.85
                            18 3.29  18 3.29
   7  0.625  0.750  0.750-   2 2.85   5 2.85  11 2.85  14 2.85  15 2.85  20 2.85  21 2.85  23 2.85
                            18 3.29  18 3.29
   8  0.000  0.500  0.500-   3 2.85  10 2.85  13 2.85  19 2.85  22 2.85  24 2.85  25 2.85  27 2.85
                            23 3.29  16 3.29  32 3.29  32 3.29
   9  0.375  0.750  0.250-   5 2.85  11 2.85  12 2.85  15 2.85  16 2.85  21 2.85  28 2.85  29 2.85
                            30 3.29  31 3.29  31 3.29
  10  0.125  0.750  0.750-   4 2.85   8 2.85  12 2.85  16 2.85  26 2.85  28 2.85  29 2.85  32 2.85
                            27 3.29  31 3.29  25 3.29  25 3.29
  11  0.500  0.500  0.000-   1 2.85   6 2.85   7 2.85   9 2.85  17 2.85  18 2.85  30 2.85  31 2.85
                            12 3.29  15 3.29  15 3.29
  12  0.250  0.500  0.000-   1 2.85   3 2.85   9 2.85  10 2.85  13 2.85  17 2.85  25 2.85  31 2.85
                            16 3.29  28 3.29  11 3.29  16 3.29  28 3.29
  13  0.125  0.250  0.250-   4 2.85   8 2.85  12 2.85  16 2.85  26 2.85  28 2.85  29 2.85  32 2.85
                            24 3.29  25 3.29  25 3.29
  14  0.750  0.000  0.500-   6 2.85   7 2.85  18 2.85  19 2.85  22 2.85  24 2.85  27 2.85  30 2.85
                            21 3.29  20 3.29  23 3.29  32 3.29  20 3.29  23 3.29
  15  0.500  0.000  0.000-   1 2.85   6 2.85   7 2.85   9 2.85  17 2.85  18 2.85  30 2.85  31 2.85
                            21 3.29  28 3.29  11 3.29  20 3.29  21 3.29  11 3.29
  16  0.250  0.500  0.500-   1 2.85   3 2.85   9 2.85  10 2.85  13 2.85  17 2.85  25 2.85  31 2.85
                             8 3.29  12 3.29  29 3.29   5 3.29  12 3.29  29 3.29
  17  0.375  0.250  0.750-   5 2.85  11 2.85  12 2.85  15 2.85  16 2.85  21 2.85  28 2.85  29 2.85
                            25 3.29  18 3.29   1 3.29  31 3.29   1 3.29  31 3.29
  18  0.625  0.250  0.750-   2 2.85   5 2.85  11 2.85  14 2.85  15 2.85  20 2.85  21 2.85  23 2.85
                             7 3.29   6 3.29  22 3.29  17 3.29   6 3.29   7 3.29
  19  0.875  0.750  0.250-   2 2.85   4 2.85   8 2.85  14 2.85  20 2.85  23 2.85  26 2.85  32 2.85
                             3 3.29  27 3.29  30 3.29  24 3.29  27 3.29  24 3.29
  20  0.750  0.000  0.000-   6 2.85   7 2.85  18 2.85  19 2.85  22 2.85  24 2.85  27 2.85  30 2.85
                            26 3.29  14 3.29  15 3.29  14 3.29
  21  0.500  0.000  0.500-   1 2.85   6 2.85   7 2.85   9 2.85  17 2.85  18 2.85  30 2.85  31 2.85
                            29 3.29  14 3.29  15 3.29  15 3.29
  22  0.875  0.250  0.750-   2 2.85   4 2.85   8 2.85  14 2.85  20 2.85  23 2.85  26 2.85  32 2.85
                            25 3.29  18 3.29  27 3.29  24 3.29  24 3.29  27 3.29
  23  0.750  0.500  0.500-   6 2.85   7 2.85  18 2.85  19 2.85  22 2.85  24 2.85  27 2.85  30 2.85
                             8 3.29  14 3.29  14 3.29
  24  0.875  0.250  0.250-   2 2.85   4 2.85   8 2.85  14 2.85  20 2.85  23 2.85  26 2.85  32 2.85
                            19 3.29  13 3.29  22 3.29  22 3.29  19 3.29
  25  0.125  0.250  0.750-   4 2.85   8 2.85  12 2.85  16 2.85  26 2.85  28 2.85  29 2.85  32 2.85
                            13 3.29  10 3.29  17 3.29  22 3.29  13 3.29  10 3.29
  26  0.000  0.000  0.000-   3 2.85  10 2.85  13 2.85  19 2.85  22 2.85  24 2.85  25 2.85  27 2.85
                            20 3.29  28 3.29  32 3.29  32 3.29
  27  0.875  0.750  0.750-   2 2.85   4 2.85   8 2.85  14 2.85  20 2.85  23 2.85  26 2.85  32 2.85
                            19 3.29  10 3.29  22 3.29  19 3.29  22 3.29
  28  0.250  0.000  0.000-   1 2.85   3 2.85   9 2.85  10 2.85  13 2.85  17 2.85  25 2.85  31 2.85
                            15 3.29  26 3.29  29 3.29  12 3.29  29 3.29  12 3.29
  29  0.250  0.000  0.500-   1 2.85   3 2.85   9 2.85  10 2.85  13 2.85  17 2.85  25 2.85  31 2.85
                            16 3.29  28 3.29  21 3.29  32 3.29  28 3.29  16 3.29
  30  0.625  0.750  0.250-   2 2.85   5 2.85  11 2.85  14 2.85  15 2.85  20 2.85  21 2.85  23 2.85
                            19 3.29   9 3.29
  31  0.375  0.750  0.750-   5 2.85  11 2.85  12 2.85  15 2.85  16 2.85  21 2.85  28 2.85  29 2.85
                             9 3.29  10 3.29  17 3.29   9 3.29  17 3.29
  32  0.000  0.000  0.500-   3 2.85  10 2.85  13 2.85  19 2.85  22 2.85  24 2.85  25 2.85  27 2.85
                            14 3.29  26 3.29   8 3.29  29 3.29  26 3.29   8 3.29
 
  LATTYP: Found a simple tetragonal cell.
 ALAT       =     6.5800000000
 C/A-ratio  =     2.0000000000
  
  Lattice vectors:
  
 A1 = (   0.0000000000,   6.5800000000,   0.0000000000)
 A2 = (   0.0000000000,   0.0000000000,   6.5800000000)
 A3 = (  13.1600000000,   0.0000000000,   0.0000000000)


Analysis of symmetry for initial positions (statically):
=====================================================================
 Subroutine PRICEL returns:
 Original cell was already a primitive cell.
 

 Routine SETGRP: Setting up the symmetry group for a 
 simple tetragonal supercell.


 Subroutine GETGRP returns: Found  1 space group operations
 (whereof  1 operations were pure point group operations)
 out of a pool of 16 trial point group operations.


The static configuration has the point symmetry C_1 .


Analysis of symmetry for dynamics (positions and initial velocities):
=====================================================================
 Subroutine PRICEL returns:
 Original cell was already a primitive cell.
 

 Routine SETGRP: Setting up the symmetry group for a 
 simple tetragonal supercell.


 Subroutine GETGRP returns: Found  1 space group operations
 (whereof  1 operations were pure point group operations)
 out of a pool of 16 trial point group operations.


The dynamic configuration has the point symmetry C_1 .


 Subroutine INISYM returns: Found  1 space group operations
 (whereof  1 operations are pure point group operations),
 and found     1 'primitive' translations


----------------------------------------------------------------------------------------

                                     Primitive cell                                     

  volume of cell :     569.7806

  direct lattice vectors                    reciprocal lattice vectors
    13.160000000  0.000000000  0.000000000     0.075987842  0.000000000  0.000000000
     0.000000000  6.580000000  0.000000000     0.000000000  0.151975684  0.000000000
     0.000000000  0.000000000  6.580000000     0.000000000  0.000000000  0.151975684

  length of vectors
    13.160000000  6.580000000  6.580000000     0.075987842  0.151975684  0.151975684

  position of ions in fractional coordinates (direct lattice)
     0.375000000  0.250000000  0.250000000
     0.750000000  0.500000000  0.000000000
     0.125000000  0.750000000  0.250000000
     0.000000000  0.500000000  0.000000000
     0.500000000  0.500000000  0.500000000
     0.625000000  0.250000000  0.250000000
     0.625000000  0.750000000  0.750000000
     0.000000000  0.500000000  0.500000000
     0.375000000  0.750000000  0.250000000
     0.125000000  0.750000000  0.750000000
     0.500000000  0.500000000  0.000000000
     0.250000000  0.500000000  0.000000000
     0.125000000  0.250000000  0.250000000
     0.750000000  0.000000000  0.500000000
     0.500000000  0.000000000  0.000000000
     0.250000000  0.500000000  0.500000000
     0.375000000  0.250000000  0.750000000
     0.625000000  0.250000000  0.750000000
     0.875000000  0.750000000  0.250000000
     0.750000000  0.000000000  0.000000000
     0.500000000  0.000000000  0.500000000
     0.875000000  0.250000000  0.750000000
     0.750000000  0.500000000  0.500000000
     0.875000000  0.250000000  0.250000000
     0.125000000  0.250000000  0.750000000
     0.000000000  0.000000000  0.000000000
     0.875000000  0.750000000  0.750000000
     0.250000000  0.000000000  0.000000000
     0.250000000  0.000000000  0.500000000
     0.625000000  0.750000000  0.250000000
     0.375000000  0.750000000  0.750000000
     0.000000000  0.000000000  0.500000000

  ion indices of the primitive-cell ions
   primitive index   ion index
                 1           1
                 2           2
                 3           3
                 4           4
                 5           5
                 6           6
                 7           7
                 8           8
                 9           9
                10          10
                11          11
                12          12
                13          13
                14          14
                15          15
                16          16
                17          17
                18          18
                19          19
                20          20
                21          21
                22          22
                23          23
                24          24
                25          25
                26          26
                27          27
                28          28
                29          29
                30          30
                31          31
                32          32

----------------------------------------------------------------------------------------

 
 
 KPOINTS: K-Spacing Value to Generate K-Mesh: 0.03

Automatic generation of k-mesh.
 Grid dimensions read from file:
 generate k-points for:    3    5    5

 Generating k-lattice:

  Cartesian coordinates                     Fractional coordinates (reciprocal lattice)
     0.025329281  0.000000000  0.000000000     0.333333333  0.000000000  0.000000000
     0.000000000  0.030395137  0.000000000     0.000000000  0.200000000  0.000000000
     0.000000000  0.000000000  0.030395137     0.000000000  0.000000000  0.200000000

  Length of vectors
     0.025329281  0.030395137  0.030395137

  Shift w.r.t. Gamma in fractional coordinates (k-lattice)
     0.000000000  0.000000000  0.000000000

 
 Subroutine IBZKPT returns following result:
 ===========================================
 
 Found     38 irreducible k-points:
 
 Following reciprocal coordinates:
            Coordinates               Weight
  0.000000  0.000000  0.000000      1.000000
  0.333333  0.000000  0.000000      2.000000
  0.000000  0.200000  0.000000      2.000000
  0.000000  0.000000  0.200000      2.000000
  0.333333  0.200000  0.000000      2.000000
  0.333333  0.000000  0.200000      2.000000
  0.333333 -0.200000  0.000000      2.000000
  0.333333  0.000000 -0.200000      2.000000
  0.000000  0.400000  0.000000      2.000000
  0.000000  0.000000  0.400000      2.000000
  0.333333  0.400000  0.000000      2.000000
  0.333333  0.000000  0.400000      2.000000
  0.333333 -0.400000  0.000000      2.000000
  0.333333  0.000000 -0.400000      2.000000
  0.000000  0.200000  0.200000      2.000000
  0.000000 -0.200000  0.200000      2.000000
  0.333333  0.200000  0.200000      2.000000
  0.333333 -0.200000  0.200000      2.000000
  0.333333 -0.200000 -0.200000      2.000000
  0.333333  0.200000 -0.200000      2.000000
  0.000000  0.400000  0.200000      2.000000
  0.000000 -0.200000  0.400000      2.000000
  0.000000 -0.400000  0.200000      2.000000
  0.000000  0.200000  0.400000      2.000000
  0.333333  0.400000  0.200000      2.000000
  0.333333 -0.200000  0.400000      2.000000
  0.333333 -0.400000 -0.200000      2.000000
  0.333333  0.200000 -0.400000      2.000000
 -0.333333 -0.400000  0.200000      2.000000
 -0.333333  0.200000  0.400000      2.000000
 -0.333333  0.400000 -0.200000      2.000000
 -0.333333 -0.200000 -0.400000      2.000000
  0.000000  0.400000  0.400000      2.000000
  0.000000 -0.400000  0.400000      2.000000
  0.333333  0.400000  0.400000      2.000000
  0.333333 -0.400000  0.400000      2.000000
  0.333333 -0.400000 -0.400000      2.000000
  0.333333  0.400000 -0.400000      2.000000
 
 Following cartesian coordinates:
            Coordinates               Weight
  0.000000  0.000000  0.000000      1.000000
  0.025329  0.000000  0.000000      2.000000
  0.000000  0.030395  0.000000      2.000000
  0.000000  0.000000  0.030395      2.000000
  0.025329  0.030395  0.000000      2.000000
  0.025329  0.000000  0.030395      2.000000
  0.025329 -0.030395  0.000000      2.000000
  0.025329  0.000000 -0.030395      2.000000
  0.000000  0.060790  0.000000      2.000000
  0.000000  0.000000  0.060790      2.000000
  0.025329  0.060790  0.000000      2.000000
  0.025329  0.000000  0.060790      2.000000
  0.025329 -0.060790  0.000000      2.000000
  0.025329  0.000000 -0.060790      2.000000
  0.000000  0.030395  0.030395      2.000000
  0.000000 -0.030395  0.030395      2.000000
  0.025329  0.030395  0.030395      2.000000
  0.025329 -0.030395  0.030395      2.000000
  0.025329 -0.030395 -0.030395      2.000000
  0.025329  0.030395 -0.030395      2.000000
  0.000000  0.060790  0.030395      2.000000
  0.000000 -0.030395  0.060790      2.000000
  0.000000 -0.060790  0.030395      2.000000
  0.000000  0.030395  0.060790      2.000000
  0.025329  0.060790  0.030395      2.000000
  0.025329 -0.030395  0.060790      2.000000
  0.025329 -0.060790 -0.030395      2.000000
  0.025329  0.030395 -0.060790      2.000000
 -0.025329 -0.060790  0.030395      2.000000
 -0.025329  0.030395  0.060790      2.000000
 -0.025329  0.060790 -0.030395      2.000000
 -0.025329 -0.030395 -0.060790      2.000000
  0.000000  0.060790  0.060790      2.000000
  0.000000 -0.060790  0.060790      2.000000
  0.025329  0.060790  0.060790      2.000000
  0.025329 -0.060790  0.060790      2.000000
  0.025329 -0.060790 -0.060790      2.000000
  0.025329  0.060790 -0.060790      2.000000
 


--------------------------------------------------------------------------------------------------------




 Dimension of arrays:
   k-points           NKPTS =     38   k-points in BZ     NKDIM =     38   number of bands    NBANDS=    260
   number of dos      NEDOS =    301   number of ions     NIONS =     32
   non local maximal  LDIM  =      6   non local SUM 2l+1 LMDIM =     18
   total plane-waves  NPLWV =  90720
   max r-space proj   IRMAX =      1   max aug-charges    IRDMAX=   9287
   dimension x,y,z NGX =    70 NGY =   36 NGZ =   36
   dimension x,y,z NGXF=   140 NGYF=   72 NGZF=   72
   support grid    NGXF=   140 NGYF=   72 NGZF=   72
   ions per type =               7   8   4  13
   NGX,Y,Z   is equivalent  to a cutoff of   8.84,  9.10,  9.10 a.u.
   NGXF,Y,Z  is equivalent  to a cutoff of  17.69, 18.19, 18.19 a.u.

 SYSTEM =  unknown system                          
 POSCAR =  Nb-Mo-Ta-W alloy                        

 Startparameter for this run:
   NWRITE =      2    write-flag & timer
   PREC   = accura    normal or accurate (medium, high low for compatibility)
   ISTART =      0    job   : 0-new  1-cont  2-samecut
   ICHARG =      2    charge: 1-file 2-atom 10-const
   ISPIN  =      1    spin polarized calculation?
   LNONCOLLINEAR =      F non collinear calculations
   LSORBIT =      F    spin-orbit coupling
   INIWAV =      1    electr: 0-lowe 1-rand  2-diag
   LASPH  =      F    aspherical Exc in radial PAW
 Electronic Relaxation 1
   ENCUT  =  250.0 eV  18.37 Ry    4.29 a.u.  16.97  8.48  8.48*2*pi/ulx,y,z
   ENINI  =  250.0     initial cutoff
   ENAUG  =  455.7 eV  augmentation charge cutoff
   NELM   =     80;   NELMIN=  2; NELMDL= -5     # of ELM steps 
   EDIFF  = 0.1E-07   stopping-criterion for ELM
   LREAL  =      F    real-space projection
   NLSPLINE    = F    spline interpolate recip. space projectors
   LCOMPAT=      F    compatible to vasp.4.4
   GGA_COMPAT  = T    GGA compatible to vasp.4.4-vasp.4.6
   LMAXPAW     = -100 max onsite density
   LMAXMIX     =    2 max onsite mixed and CHGCAR
   VOSKOWN=      0    Vosko Wilk Nusair interpolation
   ROPT   =    0.00000   0.00000   0.00000   0.00000
 Ionic relaxation
   EDIFFG = -.1E-01   stopping-criterion for IOM
   NSW    =      0    number of steps for IOM
   NBLOCK =      1;   KBLOCK =      1    inner block; outer block 
   IBRION =     -1    ionic relax: 0-MD 1-quasi-New 2-CG
   NFREE  =      0    steps in history (QN), initial steepest desc. (CG)
   ISIF   =      2    stress and relaxation
   IWAVPR =     10    prediction:  0-non 1-charg 2-wave 3-comb
   ISYM   =      2    0-nonsym 1-usesym 2-fastsym
   LCORR  =      T    Harris-Foulkes like correction to forces

   POTIM  = 0.5000    time-step for ionic-motion
   TEIN   =    0.0    initial temperature
   TEBEG  =    0.0;   TEEND  =   0.0 temperature during run
   SMASS  =  -3.00    Nose mass-parameter (am)
   estimated Nose-frequenzy (Omega)   =  0.10E-29 period in steps = 0.13E+47 mass=  -0.396E-26a.u.
   SCALEE = 1.0000    scale energy and forces
   NPACO  =    256;   APACO  = 10.0  distance and # of slots for P.C.
   PSTRESS=    0.0 pullay stress

  Mass of Ions in am
   POMASS =  92.91 95.94180.95183.85
  Ionic Valenz
   ZVAL   =  13.00 14.00 11.00 14.00
  Atomic Wigner-Seitz radii
   RWIGS  =  -1.00 -1.00 -1.00 -1.00
  virtual crystal weights 
   VCA    =   1.00  1.00  1.00  1.00
   NELECT =     429.0000    total number of electrons
   NUPDOWN=      -1.0000    fix difference up-down

 DOS related values:
   EMIN   =  10.00;   EMAX   =-10.00  energy-range for DOS
   EFERMI =   0.00
   ISMEAR =     0;   SIGMA  =   0.02  broadening in eV -4-tet -1-fermi 0-gaus

 Electronic relaxation 2 (details)
   IALGO  =     38    algorithm
   LDIAG  =      T    sub-space diagonalisation (order eigenvalues)
   LSUBROT=      F    optimize rotation matrix (better conditioning)
   TURBO    =      0    0=normal 1=particle mesh
   IRESTART =      0    0=no restart 2=restart with 2 vectors
   NREBOOT  =      0    no. of reboots
   NMIN     =      0    reboot dimension
   EREF     =   0.00    reference energy to select bands
   IMIX   =      4    mixing-type and parameters
     AMIX     =   0.40;   BMIX     =  1.00
     AMIX_MAG =   1.60;   BMIX_MAG =  1.00
     AMIN     =   0.10
     WC   =   100.;   INIMIX=   1;  MIXPRE=   1;  MAXMIX= -45

 Intra band minimization:
   WEIMIN = 0.0000     energy-eigenvalue tresh-hold
   EBREAK =  0.96E-11  absolut break condition
   DEPER  =   0.30     relativ break condition  

   TIME   =   0.40     timestep for ELM

  volume/ion in A,a.u.               =      17.81       120.16
  Fermi-wavevector in a.u.,A,eV,Ry     =   1.489331  2.814428 30.179195  2.218108
  Thomas-Fermi vector in A             =   2.602253
 
 Write flags
   LWAVE        =      F    write WAVECAR
   LDOWNSAMPLE  =      F    k-point downsampling of WAVECAR
   LCHARG       =      F    write CHGCAR
   LVTOT        =      F    write LOCPOT, total local potential
   LVHAR        =      F    write LOCPOT, Hartree potential only
   LELF         =      F    write electronic localiz. function (ELF)
   LORBIT       =      0    0 simple, 1 ext, 2 COOP (PROOUT), +10 PAW based schemes


 Dipole corrections
   LMONO  =      F    monopole corrections only (constant potential shift)
   LDIPOL =      F    correct potential (dipole corrections)
   IDIPOL =      0    1-x, 2-y, 3-z, 4-all directions 
   EPSILON=  1.0000000 bulk dielectric constant

 Core level calculations are selected ICORELEVEL =  1
 Exchange correlation treatment:
   GGA     =    PE    GGA type
   LEXCH   =     8    internal setting for exchange type
   LIBXC   =     F    Libxc                    
   VOSKOWN =     0    Vosko Wilk Nusair interpolation
   LHFCALC =     F    Hartree Fock is set to
   LHFONE  =     F    Hartree Fock one center treatment
   AEXX    =    0.0000 exact exchange contribution

 Linear response parameters
   LEPSILON=     F    determine dielectric tensor
   LRPA    =     F    only Hartree local field effects (RPA)
   LNABLA  =     F    use nabla operator in PAW spheres
   LVEL    =     F    velocity operator in full k-point grid
   CSHIFT  =0.1000    complex shift for real part using Kramers Kronig
   OMEGAMAX=  -1.0    maximum frequency
   DEG_THRESHOLD= 0.2000000E-02 threshold for treating states as degnerate
   RTIME   =   -0.100 relaxation time in fs
  (WPLASMAI=    0.000 imaginary part of plasma frequency in eV, 0.658/RTIME)
   DFIELD  = 0.0000000 0.0000000 0.0000000 field for delta impulse in time
 
  Optional k-point grid parameters
   LKPOINTS_OPT  =     F    use optional k-point grid
   KPOINTS_OPT_MODE=     1    mode for optional k-point grid
 
 Orbital magnetization related:
   ORBITALMAG=     F  switch on orbital magnetization
   LCHIMAG   =     F  perturbation theory with respect to B field
   DQ        =  0.001000  dq finite difference perturbation B field
   LLRAUG    =     F  two centre corrections for induced B field



--------------------------------------------------------------------------------------------------------


 Static calculation
 charge density and potential will be updated during run
 non-spin polarized calculation
 Variant of blocked Davidson
 Davidson routine will perform the subspace rotation
 perform sub-space diagonalisation
    after iterative eigenvector-optimisation
 modified Broyden-mixing scheme, WC =      100.0
 initial mixing is a Kerker type mixing with AMIX =  0.4000 and BMIX =      1.0000
 Hartree-type preconditioning will be used
 using additional bands           45
 reciprocal scheme for non local part
 use partial core corrections
 calculate Harris-corrections to forces 
   (improved forces if not selfconsistent)
 use gradient corrections 
 use of overlap-Matrix (Vanderbilt PP)
 Gauss-broadening in eV      SIGMA  =   0.02


--------------------------------------------------------------------------------------------------------


  energy-cutoff  :      250.00
  volume of cell :      569.78
      direct lattice vectors                 reciprocal lattice vectors
    13.160000000  0.000000000  0.000000000     0.075987842  0.000000000  0.000000000
     0.000000000  6.580000000  0.000000000     0.000000000  0.151975684  0.000000000
     0.000000000  0.000000000  6.580000000     0.000000000  0.000000000  0.151975684

  length of vectors
    13.160000000  6.580000000  6.580000000     0.075987842  0.151975684  0.151975684


 
 k-points in units of 2pi/SCALE and weight: K-Spacing Value to Generate K-Mesh: 0.03
   0.00000000  0.00000000  0.00000000       0.013
   0.02532928  0.00000000  0.00000000       0.027
   0.00000000  0.03039514  0.00000000       0.027
   0.00000000  0.00000000  0.03039514       0.027
   0.02532928  0.03039514  0.00000000       0.027
   0.02532928  0.00000000  0.03039514       0.027
   0.02532928 -0.03039514  0.00000000       0.027
   0.02532928  0.00000000 -0.03039514       0.027
   0.00000000  0.06079027  0.00000000       0.027
   0.00000000  0.00000000  0.06079027       0.027
   0.02532928  0.06079027  0.00000000       0.027
   0.02532928  0.00000000  0.06079027       0.027
   0.02532928 -0.06079027  0.00000000       0.027
   0.02532928  0.00000000 -0.06079027       0.027
   0.00000000  0.03039514  0.03039514       0.027
   0.00000000 -0.03039514  0.03039514       0.027
   0.02532928  0.03039514  0.03039514       0.027
   0.02532928 -0.03039514  0.03039514       0.027
   0.02532928 -0.03039514 -0.03039514       0.027
   0.02532928  0.03039514 -0.03039514       0.027
   0.00000000  0.06079027  0.03039514       0.027
   0.00000000 -0.03039514  0.06079027       0.027
   0.00000000 -0.06079027  0.03039514       0.027
   0.00000000  0.03039514  0.06079027       0.027
   0.02532928  0.06079027  0.03039514       0.027
   0.02532928 -0.03039514  0.06079027       0.027
   0.02532928 -0.06079027 -0.03039514       0.027
   0.02532928  0.03039514 -0.06079027       0.027
  -0.02532928 -0.06079027  0.03039514       0.027
  -0.02532928  0.03039514  0.06079027       0.027
  -0.02532928  0.06079027 -0.03039514       0.027
  -0.02532928 -0.03039514 -0.06079027       0.027
   0.00000000  0.06079027  0.06079027       0.027
   0.00000000 -0.06079027  0.06079027       0.027
   0.02532928  0.06079027  0.06079027       0.027
   0.02532928 -0.06079027  0.06079027       0.027
   0.02532928 -0.06079027 -0.06079027       0.027
   0.02532928  0.06079027 -0.06079027       0.027
 
 k-points in reciprocal lattice and weights: K-Spacing Value to Generate K-Mesh: 0.03
   0.00000000  0.00000000  0.00000000       0.013
   0.33333333  0.00000000  0.00000000       0.027
   0.00000000  0.20000000  0.00000000       0.027
   0.00000000  0.00000000  0.20000000       0.027
   0.33333333  0.20000000  0.00000000       0.027
   0.33333333  0.00000000  0.20000000       0.027
   0.33333333 -0.20000000  0.00000000       0.027
   0.33333333  0.00000000 -0.20000000       0.027
   0.00000000  0.40000000  0.00000000       0.027
   0.00000000  0.00000000  0.40000000       0.027
   0.33333333  0.40000000  0.00000000       0.027
   0.33333333  0.00000000  0.40000000       0.027
   0.33333333 -0.40000000  0.00000000       0.027
   0.33333333  0.00000000 -0.40000000       0.027
   0.00000000  0.20000000  0.20000000       0.027
   0.00000000 -0.20000000  0.20000000       0.027
   0.33333333  0.20000000  0.20000000       0.027
   0.33333333 -0.20000000  0.20000000       0.027
   0.33333333 -0.20000000 -0.20000000       0.027
   0.33333333  0.20000000 -0.20000000       0.027
   0.00000000  0.40000000  0.20000000       0.027
   0.00000000 -0.20000000  0.40000000       0.027
   0.00000000 -0.40000000  0.20000000       0.027
   0.00000000  0.20000000  0.40000000       0.027
   0.33333333  0.40000000  0.20000000       0.027
   0.33333333 -0.20000000  0.40000000       0.027
   0.33333333 -0.40000000 -0.20000000       0.027
   0.33333333  0.20000000 -0.40000000       0.027
  -0.33333333 -0.40000000  0.20000000       0.027
  -0.33333333  0.20000000  0.40000000       0.027
  -0.33333333  0.40000000 -0.20000000       0.027
  -0.33333333 -0.20000000 -0.40000000       0.027
   0.00000000  0.40000000  0.40000000       0.027
   0.00000000 -0.40000000  0.40000000       0.027
   0.33333333  0.40000000  0.40000000       0.027
   0.33333333 -0.40000000  0.40000000       0.027
   0.33333333 -0.40000000 -0.40000000       0.027
   0.33333333  0.40000000 -0.40000000       0.027
 
 position of ions in fractional coordinates (direct lattice) 
   0.37500000  0.25000000  0.25000000
   0.75000000  0.50000000  0.00000000
   0.12500000  0.75000000  0.25000000
   0.00000000  0.50000000  0.00000000
   0.50000000  0.50000000  0.50000000
   0.62500000  0.25000000  0.25000000
   0.62500000  0.75000000  0.75000000
   0.00000000  0.50000000  0.50000000
   0.37500000  0.75000000  0.25000000
   0.12500000  0.75000000  0.75000000
   0.50000000  0.50000000  0.00000000
   0.25000000  0.50000000  0.00000000
   0.12500000  0.25000000  0.25000000
   0.75000000  0.00000000  0.50000000
   0.50000000  0.00000000  0.00000000
   0.25000000  0.50000000  0.50000000
   0.37500000  0.25000000  0.75000000
   0.62500000  0.25000000  0.75000000
   0.87500000  0.75000000  0.25000000
   0.75000000  0.00000000  0.00000000
   0.50000000  0.00000000  0.50000000
   0.87500000  0.25000000  0.75000000
   0.75000000  0.50000000  0.50000000
   0.87500000  0.25000000  0.25000000
   0.12500000  0.25000000  0.75000000
   0.00000000  0.00000000  0.00000000
   0.87500000  0.75000000  0.75000000
   0.25000000  0.00000000  0.00000000
   0.25000000  0.00000000  0.50000000
   0.62500000  0.75000000  0.25000000
   0.37500000  0.75000000  0.75000000
   0.00000000  0.00000000  0.50000000
 
 position of ions in cartesian coordinates  (Angst):
   4.93500000  1.64500000  1.64500000
   9.87000000  3.29000000  0.00000000
   1.64500000  4.93500000  1.64500000
   0.00000000  3.29000000  0.00000000
   6.58000000  3.29000000  3.29000000
   8.22500000  1.64500000  1.64500000
   8.22500000  4.93500000  4.93500000
   0.00000000  3.29000000  3.29000000
   4.93500000  4.93500000  1.64500000
   1.64500000  4.93500000  4.93500000
   6.58000000  3.29000000  0.00000000
   3.29000000  3.29000000  0.00000000
   1.64500000  1.64500000  1.64500000
   9.87000000  0.00000000  3.29000000
   6.58000000  0.00000000  0.00000000
   3.29000000  3.29000000  3.29000000
   4.93500000  1.64500000  4.93500000
   8.22500000  1.64500000  4.93500000
  11.51500000  4.93500000  1.64500000
   9.87000000  0.00000000  0.00000000
   6.58000000  0.00000000  3.29000000
  11.51500000  1.64500000  4.93500000
   9.87000000  3.29000000  3.29000000
  11.51500000  1.64500000  1.64500000
   1.64500000  1.64500000  4.93500000
   0.00000000  0.00000000  0.00000000
  11.51500000  4.93500000  4.93500000
   3.29000000  0.00000000  0.00000000
   3.29000000  0.00000000  3.29000000
   8.22500000  4.93500000  1.64500000
   4.93500000  4.93500000  4.93500000
   0.00000000  0.00000000  3.29000000
 


--------------------------------------------------------------------------------------------------------


 k-point   1 :   0.0000 0.0000 0.0000  plane waves:    5077
 k-point   2 :   0.3333 0.0000 0.0000  plane waves:    5118
 k-point   3 :   0.0000 0.2000 0.0000  plane waves:    5099
 k-point   4 :   0.0000 0.0000 0.2000  plane waves:    5099
 k-point   5 :   0.3333 0.2000 0.0000  plane waves:    5140
 k-point   6 :   0.3333 0.0000 0.2000  plane waves:    5140
 k-point   7 :   0.3333-0.2000 0.0000  plane waves:    5140
 k-point   8 :   0.3333 0.0000-0.2000  plane waves:    5140
 k-point   9 :   0.0000 0.4000 0.0000  plane waves:    5119
 k-point  10 :   0.0000 0.0000 0.4000  plane waves:    5119
 k-point  11 :   0.3333 0.4000 0.0000  plane waves:    5127
 k-point  12 :   0.3333 0.0000 0.4000  plane waves:    5127
 k-point  13 :   0.3333-0.4000 0.0000  plane waves:    5127
 k-point  14 :   0.3333 0.0000-0.4000  plane waves:    5127
 k-point  15 :   0.0000 0.2000 0.2000  plane waves:    5124
 k-point  16 :   0.0000-0.2000 0.2000  plane waves:    5124
 k-point  17 :   0.3333 0.2000 0.2000  plane waves:    5117
 k-point  18 :   0.3333-0.2000 0.2000  plane waves:    5117
 k-point  19 :   0.3333-0.2000-0.2000  plane waves:    5117
 k-point  20 :   0.3333 0.2000-0.2000  plane waves:    5117
 k-point  21 :   0.0000 0.4000 0.2000  plane waves:    5118
 k-point  22 :   0.0000-0.2000 0.4000  plane waves:    5118
 k-point  23 :   0.0000-0.4000 0.2000  plane waves:    5118
 k-point  24 :   0.0000 0.2000 0.4000  plane waves:    5118
 k-point  25 :   0.3333 0.4000 0.2000  plane waves:    5105
 k-point  26 :   0.3333-0.2000 0.4000  plane waves:    5105
 k-point  27 :   0.3333-0.4000-0.2000  plane waves:    5105
 k-point  28 :   0.3333 0.2000-0.4000  plane waves:    5105
 k-point  29 :  -0.3333-0.4000 0.2000  plane waves:    5105
 k-point  30 :  -0.3333 0.2000 0.4000  plane waves:    5105
 k-point  31 :  -0.3333 0.4000-0.2000  plane waves:    5105
 k-point  32 :  -0.3333-0.2000-0.4000  plane waves:    5105
 k-point  33 :   0.0000 0.4000 0.4000  plane waves:    5098
 k-point  34 :   0.0000-0.4000 0.4000  plane waves:    5098
 k-point  35 :   0.3333 0.4000 0.4000  plane waves:    5088
 k-point  36 :   0.3333-0.4000 0.4000  plane waves:    5088
 k-point  37 :   0.3333-0.4000-0.4000  plane waves:    5088
 k-point  38 :   0.3333 0.4000-0.4000  plane waves:    5088

 maximum and minimum number of plane-waves per node :       464      388

 maximum number of plane-waves:      5140
 maximum index in each direction: 
   IXMAX=   17   IYMAX=    8   IZMAX=    8
   IXMIN=  -17   IYMIN=   -8   IZMIN=   -8


 parallel 3D FFT for wavefunctions:
    minimum data exchange during FFTs selected (reduces bandwidth)
 parallel 3D FFT for charge:
    minimum data exchange during FFTs selected (reduces bandwidth)


 total amount of memory used by VASP MPI-rank0    61987. kBytes
=======================================================================

   base      :      30000. kBytes
   nonl-proj :       9945. kBytes
   fftplans  :        778. kBytes
   grid      :       1458. kBytes
   one-center:         46. kBytes
   wavefun   :      19760. kBytes
 
     INWAV:  cpu time      0.0000: real time      0.0000
 Broyden mixing: mesh for mixing (old mesh)
   NGX = 33   NGY = 17   NGZ = 17
  (NGX  =140   NGY  = 72   NGZ  = 72)
  gives a total of   9537 points

 initial charge density was supplied:
 charge density of overlapping atoms calculated
 number of electron     429.0000000 magnetization 
 keeping initial charge density in first step


--------------------------------------------------------------------------------------------------------


 Maximum index for augmentation-charges          517 (set IRDMAX)


--------------------------------------------------------------------------------------------------------


 First call to EWALD:  gamma=   0.214
 Maximum number of real-space cells 2x 3x 3
 Maximum number of reciprocal cells 4x 2x 2

    FEWALD:  cpu time      0.0047: real time      0.0047


--------------------------------------- Iteration      1(   1)  ---------------------------------------


    POTLOK:  cpu time      0.0075: real time      0.0130
    SETDIJ:  cpu time      0.0025: real time      0.0027
     EDDAV:  cpu time     43.8803: real time     48.5527
       DOS:  cpu time      0.4888: real time      0.7368
    --------------------------------------------
      LOOP:  cpu time     44.3791: real time     49.3053

 eigenvalue-minimisations  : 20112
 total energy-change (2. order) : 0.4278315E+04  (-0.1668014E+05)
 number of electron     429.0000000 magnetization 
 augmentation part      429.0000000 magnetization 

 Free energy of the ion-electron system (eV)
  ---------------------------------------------------
  alpha Z        PSCENC =      3699.45680338
  Ewald energy   TEWEN  =    -45880.88676804
  -Hartree energ DENC   =     -8760.36222143
  -exchange      EXHF   =         0.00000000
  -V(xc)+E(xc)   XCENC  =      1767.05454147
  PAW double counting   =     42927.95626273   -42287.97241603
  entropy T*S    EENTRO =        -0.00202442
  eigenvalues    EBANDS =     -1409.56932324
  atomic energy  EATOM  =     54222.63966321
  Solvation  Ediel_sol  =         0.00000000
  ---------------------------------------------------
  free energy    TOTEN  =      4278.31451763 eV

  energy without entropy =     4278.31654205  energy(sigma->0) =     4278.31552984


--------------------------------------------------------------------------------------------------------




--------------------------------------- Iteration      1(   2)  ---------------------------------------


     EDDAV:  cpu time     46.2822: real time     50.2037
       DOS:  cpu time      0.1332: real time      0.1337
    --------------------------------------------
      LOOP:  cpu time     46.4154: real time     50.3374

 eigenvalue-minimisations  : 19904
 total energy-change (2. order) :-0.4271493E+04  (-0.4140807E+04)
 number of electron     429.0000000 magnetization 
 augmentation part      429.0000000 magnetization 

 Free energy of the ion-electron system (eV)
  ---------------------------------------------------
  alpha Z        PSCENC =      3699.45680338
  Ewald energy   TEWEN  =    -45880.88676804
  -Hartree energ DENC   =     -8760.36222143
  -exchange      EXHF   =         0.00000000
  -V(xc)+E(xc)   XCENC  =      1767.05454147
  PAW double counting   =     42927.95626273   -42287.97241603
  entropy T*S    EENTRO =        -0.00389782
  eigenvalues    EBANDS =     -5681.06021098
  atomic energy  EATOM  =     54222.63966321
  Solvation  Ediel_sol  =         0.00000000
  ---------------------------------------------------
  free energy    TOTEN  =         6.82175649 eV

  energy without entropy =        6.82565432  energy(sigma->0) =        6.82370541


--------------------------------------------------------------------------------------------------------




--------------------------------------- Iteration      1(   3)  ---------------------------------------


     EDDAV:  cpu time     22.0265: real time     22.4152
       DOS:  cpu time      0.1331: real time      0.1337
    --------------------------------------------
      LOOP:  cpu time     22.1597: real time     22.5489

 eigenvalue-minimisations  : 29032
 total energy-change (2. order) :-0.3755076E+03  (-0.3514179E+03)
 number of electron     429.0000000 magnetization 
 augmentation part      429.0000000 magnetization 

 Free energy of the ion-electron system (eV)
  ---------------------------------------------------
  alpha Z        PSCENC =      3699.45680338
  Ewald energy   TEWEN  =    -45880.88676804
  -Hartree energ DENC   =     -8760.36222143
  -exchange      EXHF   =         0.00000000
  -V(xc)+E(xc)   XCENC  =      1767.05454147
  PAW double counting   =     42927.95626273   -42287.97241603
  entropy T*S    EENTRO =        -0.00361161
  eigenvalues    EBANDS =     -6056.56806679
  atomic energy  EATOM  =     54222.63966321
  Solvation  Ediel_sol  =         0.00000000
  ---------------------------------------------------
  free energy    TOTEN  =      -368.68581310 eV

  energy without entropy =     -368.68220149  energy(sigma->0) =     -368.68400730


--------------------------------------------------------------------------------------------------------




--------------------------------------- Iteration      1(   4)  ---------------------------------------


     EDDAV:  cpu time     33.3035: real time     35.7812
       DOS:  cpu time      0.6470: real time      0.6494
    --------------------------------------------
      LOOP:  cpu time     33.9505: real time     36.4305

 eigenvalue-minimisations  : 28016
 total energy-change (2. order) :-0.2577691E+02  (-0.2500533E+02)
 number of electron     429.0000000 magnetization 
 augmentation part      429.0000000 magnetization 

 Free energy of the ion-electron system (eV)
  ---------------------------------------------------
  alpha Z        PSCENC =      3699.45680338
  Ewald energy   TEWEN  =    -45880.88676804
  -Hartree energ DENC   =     -8760.36222143
  -exchange      EXHF   =         0.00000000
  -V(xc)+E(xc)   XCENC  =      1767.05454147
  PAW double counting   =     42927.95626273   -42287.97241603
  entropy T*S    EENTRO =        -0.00457291
  eigenvalues    EBANDS =     -6082.34401372
  atomic energy  EATOM  =     54222.63966321
  Solvation  Ediel_sol  =         0.00000000
  ---------------------------------------------------
  free energy    TOTEN  =      -394.46272134 eV

  energy without entropy =     -394.45814843  energy(sigma->0) =     -394.46043488


--------------------------------------------------------------------------------------------------------




--------------------------------------- Iteration      1(   5)  ---------------------------------------


     EDDAV:  cpu time     27.0392: real time     27.2842
       DOS:  cpu time      0.5677: real time      0.5700
    CHARGE:  cpu time      0.5860: real time      0.5881
    MIXING:  cpu time      0.1493: real time      0.1499
    --------------------------------------------
      LOOP:  cpu time     28.3421: real time     28.5922

 eigenvalue-minimisations  : 33040
 total energy-change (2. order) :-0.1691146E+01  (-0.1677089E+01)
 number of electron     428.9999778 magnetization 
 augmentation part       92.5653233 magnetization 

 Broyden mixing:
  rms(total) = 0.77240E+01    rms(broyden)= 0.77222E+01
  rms(prec ) = 0.79480E+01
  weight for this iteration     100.00

 Free energy of the ion-electron system (eV)
  ---------------------------------------------------
  alpha Z        PSCENC =      3699.45680338
  Ewald energy   TEWEN  =    -45880.88676804
  -Hartree energ DENC   =     -8760.36222143
  -exchange      EXHF   =         0.00000000
  -V(xc)+E(xc)   XCENC  =      1767.05454147
  PAW double counting   =     42927.95626273   -42287.97241603
  entropy T*S    EENTRO =        -0.00446751
  eigenvalues    EBANDS =     -6084.03526480
  atomic energy  EATOM  =     54222.63966321
  Solvation  Ediel_sol  =         0.00000000
  ---------------------------------------------------
  free energy    TOTEN  =      -396.15386702 eV

  energy without entropy =     -396.14939951  energy(sigma->0) =     -396.15163326


--------------------------------------------------------------------------------------------------------




--------------------------------------- Iteration      1(   6)  ---------------------------------------


    POTLOK:  cpu time      0.0533: real time      0.0537
    SETDIJ:  cpu time      0.0037: real time      0.0037
     EDDAV:  cpu time     15.5906: real time     15.6855
       DOS:  cpu time      0.0054: real time      0.0054
    CHARGE:  cpu time      0.1881: real time      0.1887
    MIXING:  cpu time      0.2283: real time      0.2292
    --------------------------------------------
      LOOP:  cpu time     16.0694: real time     16.1662

 eigenvalue-minimisations  : 23872
 total energy-change (2. order) : 0.1597102E+02  (-0.4526552E+01)
 number of electron     428.9999767 magnetization 
 augmentation part       96.0071422 magnetization 

 Broyden mixing:
  rms(total) = 0.28011E+01    rms(broyden)= 0.28007E+01
  rms(prec ) = 0.32257E+01
  weight for this iteration     100.00

 eigenvalues of (default mixing * dielectric matrix)
  average eigenvalue GAMMA=   1.4519
  1.4519

 Free energy of the ion-electron system (eV)
  ---------------------------------------------------
  alpha Z        PSCENC =      3699.45680338
  Ewald energy   TEWEN  =    -45880.88676804
  -Hartree energ DENC   =     -8274.33188955
  -exchange      EXHF   =         0.00000000
  -V(xc)+E(xc)   XCENC  =      1743.31612241
  PAW double counting   =     50215.81480878   -49640.67778945
  entropy T*S    EENTRO =        -0.00244614
  eigenvalues    EBANDS =     -6465.51134861
  atomic energy  EATOM  =     54222.63966321
  Solvation  Ediel_sol  =         0.00000000
  ---------------------------------------------------
  free energy    TOTEN  =      -380.18284402 eV

  energy without entropy =     -380.18039787  energy(sigma->0) =     -380.18162094


--------------------------------------------------------------------------------------------------------




--------------------------------------- Iteration      1(   7)  ---------------------------------------


    POTLOK:  cpu time      0.0184: real time      0.0188
    SETDIJ:  cpu time      0.0036: real time      0.0036
     EDDAV:  cpu time     19.3829: real time     19.5567
       DOS:  cpu time      0.1327: real time      0.1332
    CHARGE:  cpu time      0.1679: real time      0.1685
    MIXING:  cpu time      0.2590: real time      0.2599
    --------------------------------------------
      LOOP:  cpu time     19.9645: real time     20.1408

 eigenvalue-minimisations  : 28376
 total energy-change (2. order) :-0.8172754E+01  (-0.4736733E+01)
 number of electron     428.9999769 magnetization 
 augmentation part       96.3688499 magnetization 

 Broyden mixing:
  rms(total) = 0.17263E+01    rms(broyden)= 0.17249E+01
  rms(prec ) = 0.46875E+01
  weight for this iteration     100.00

 eigenvalues of (default mixing * dielectric matrix)
  average eigenvalue GAMMA=   1.0211
  1.5493  0.4930

 Free energy of the ion-electron system (eV)
  ---------------------------------------------------
  alpha Z        PSCENC =      3699.45680338
  Ewald energy   TEWEN  =    -45880.88676804
  -Hartree energ DENC   =     -8099.09798775
  -exchange      EXHF   =         0.00000000
  -V(xc)+E(xc)   XCENC  =      1733.61892710
  PAW double counting   =     54786.01319771   -54239.11878518
  entropy T*S    EENTRO =        -0.00301711
  eigenvalues    EBANDS =     -6610.97763133
  atomic energy  EATOM  =     54222.63966321
  Solvation  Ediel_sol  =         0.00000000
  ---------------------------------------------------
  free energy    TOTEN  =      -388.35559800 eV

  energy without entropy =     -388.35258089  energy(sigma->0) =     -388.35408945


--------------------------------------------------------------------------------------------------------




--------------------------------------- Iteration      1(   8)  ---------------------------------------


    POTLOK:  cpu time      0.2254: real time      0.2266
    SETDIJ:  cpu time      0.0076: real time      0.0076
     EDDAV:  cpu time     24.0190: real time     25.3404
       DOS:  cpu time      0.3844: real time      0.3860
    CHARGE:  cpu time      0.4609: real time      0.4624
    MIXING:  cpu time      0.2848: real time      0.2859
    --------------------------------------------
      LOOP:  cpu time     25.3820: real time     26.7090

 eigenvalue-minimisations  : 27984
 total energy-change (2. order) : 0.1295055E+02  (-0.3002980E+01)
 number of electron     428.9999770 magnetization 
 augmentation part       96.7918421 magnetization 

 Broyden mixing:
  rms(total) = 0.68809E+00    rms(broyden)= 0.68620E+00
  rms(prec ) = 0.10710E+01
  weight for this iteration     100.00

 eigenvalues of (default mixing * dielectric matrix)
  average eigenvalue GAMMA=   0.9023
  1.6081  0.7700  0.3289

 Free energy of the ion-electron system (eV)
  ---------------------------------------------------
  alpha Z        PSCENC =      3699.45680338
  Ewald energy   TEWEN  =    -45880.88676804
  -Hartree energ DENC   =     -8040.98997868
  -exchange      EXHF   =         0.00000000
  -V(xc)+E(xc)   XCENC  =      1731.17335737
  PAW double counting   =     55865.59839928   -55326.85426203
  entropy T*S    EENTRO =        -0.00199651
  eigenvalues    EBANDS =     -6645.54026135
  atomic energy  EATOM  =     54222.63966321
  Solvation  Ediel_sol  =         0.00000000
  ---------------------------------------------------
  free energy    TOTEN  =      -375.40504337 eV

  energy without entropy =     -375.40304685  energy(sigma->0) =     -375.40404511


--------------------------------------------------------------------------------------------------------




--------------------------------------- Iteration      1(   9)  ---------------------------------------


    POTLOK:  cpu time      0.1517: real time      0.1525
    SETDIJ:  cpu time      0.0040: real time      0.0040
     EDDAV:  cpu time     17.2741: real time     18.3757
       DOS:  cpu time      0.1322: real time      0.1326
    CHARGE:  cpu time      0.1844: real time      0.1851
    MIXING:  cpu time      0.2560: real time      0.3221
    --------------------------------------------
      LOOP:  cpu time     18.0024: real time     19.1721

 eigenvalue-minimisations  : 26096
 total energy-change (2. order) : 0.3236968E-01  (-0.1042928E+01)
 number of electron     428.9999768 magnetization 
 augmentation part       97.2277808 magnetization 

 Broyden mixing:
  rms(total) = 0.54879E+00    rms(broyden)= 0.54825E+00
  rms(prec ) = 0.65307E+00
  weight for this iteration     100.00

 eigenvalues of (default mixing * dielectric matrix)
  average eigenvalue GAMMA=   0.8887
  1.4176  1.4176  0.2938  0.4259

 Free energy of the ion-electron system (eV)
  ---------------------------------------------------
  alpha Z        PSCENC =      3699.45680338
  Ewald energy   TEWEN  =    -45880.88676804
  -Hartree energ DENC   =     -8015.28339470
  -exchange      EXHF   =         0.00000000
  -V(xc)+E(xc)   XCENC  =      1730.09348871
  PAW double counting   =     56362.46067419   -55827.30793144
  entropy T*S    EENTRO =        -0.00408452
  eigenvalues    EBANDS =     -6666.54112447
  atomic energy  EATOM  =     54222.63966321
  Solvation  Ediel_sol  =         0.00000000
  ---------------------------------------------------
  free energy    TOTEN  =      -375.37267368 eV

  energy without entropy =     -375.36858916  energy(sigma->0) =     -375.37063142


--------------------------------------------------------------------------------------------------------




--------------------------------------- Iteration      1(  10)  ---------------------------------------


    POTLOK:  cpu time      0.4240: real time      0.4910
    SETDIJ:  cpu time      0.2031: real time      0.2169
     EDDAV:  cpu time     21.8865: real time     23.7411
       DOS:  cpu time      0.3893: real time      0.4509
    CHARGE:  cpu time      0.2213: real time      0.2631
    MIXING:  cpu time      0.2460: real time      0.2469
    --------------------------------------------
      LOOP:  cpu time     23.3701: real time     25.4099

 eigenvalue-minimisations  : 25648
 total energy-change (2. order) : 0.9569826E-01  (-0.1851338E+00)
 number of electron     428.9999770 magnetization 
 augmentation part       97.1405530 magnetization 

 Broyden mixing:
  rms(total) = 0.35572E+00    rms(broyden)= 0.35562E+00
  rms(prec ) = 0.40227E+00
  weight for this iteration     100.00

 eigenvalues of (default mixing * dielectric matrix)
  average eigenvalue GAMMA=   1.0493
  1.9474  1.9474  0.6484  0.3958  0.3073

 Free energy of the ion-electron system (eV)
  ---------------------------------------------------
  alpha Z        PSCENC =      3699.45680338
  Ewald energy   TEWEN  =    -45880.88676804
  -Hartree energ DENC   =     -8020.16793088
  -exchange      EXHF   =         0.00000000
  -V(xc)+E(xc)   XCENC  =      1730.32086656
  PAW double counting   =     56436.28548898   -55899.85018579
  entropy T*S    EENTRO =        -0.00411000
  eigenvalues    EBANDS =     -6663.07080284
  atomic energy  EATOM  =     54222.63966321
  Solvation  Ediel_sol  =         0.00000000
  ---------------------------------------------------
  free energy    TOTEN  =      -375.27697542 eV

  energy without entropy =     -375.27286542  energy(sigma->0) =     -375.27492042


--------------------------------------------------------------------------------------------------------




--------------------------------------- Iteration      1(  11)  ---------------------------------------


    POTLOK:  cpu time      0.3425: real time      0.4541
    SETDIJ:  cpu time      0.1294: real time      0.1949
     EDDAV:  cpu time     18.3440: real time     19.2392
       DOS:  cpu time      0.0052: real time      0.0052
    CHARGE:  cpu time      0.2348: real time      0.2356
    MIXING:  cpu time      0.0004: real time      0.0004
    --------------------------------------------
      LOOP:  cpu time     19.0563: real time     20.1294

 eigenvalue-minimisations  : 25864
 total energy-change (2. order) : 0.2130850E-01  (-0.6831909E-01)
 number of electron     428.9999770 magnetization 
 augmentation part       96.9480010 magnetization 

 Broyden mixing:
  rms(total) = 0.14542E+00    rms(broyden)= 0.14531E+00
  rms(prec ) = 0.20593E+00
  weight for this iteration     100.00

 eigenvalues of (default mixing * dielectric matrix)
  average eigenvalue GAMMA=   1.0503
  2.4751  1.7902  0.8888  0.4592  0.3071  0.3816

 Free energy of the ion-electron system (eV)
  ---------------------------------------------------
  alpha Z        PSCENC =      3699.45680338
  Ewald energy   TEWEN  =    -45880.88676804
  -Hartree energ DENC   =     -8028.73464415
  -exchange      EXHF   =         0.00000000
  -V(xc)+E(xc)   XCENC  =      1730.68736648
  PAW double counting   =     56453.89970066   -55914.96887832
  entropy T*S    EENTRO =        -0.00382883
  eigenvalues    EBANDS =     -6657.34508133
  atomic energy  EATOM  =     54222.63966321
  Solvation  Ediel_sol  =         0.00000000
  ---------------------------------------------------
  free energy    TOTEN  =      -375.25566692 eV

  energy without entropy =     -375.25183810  energy(sigma->0) =     -375.25375251


--------------------------------------------------------------------------------------------------------




--------------------------------------- Iteration      1(  12)  ---------------------------------------


    POTLOK:  cpu time      0.0061: real time      0.0062
    SETDIJ:  cpu time      0.0020: real time      0.0020
     EDDAV:  cpu time     18.2367: real time     19.0681
       DOS:  cpu time      0.0055: real time      0.0055
    CHARGE:  cpu time      0.1762: real time      0.1899
    MIXING:  cpu time      0.0053: real time      0.0053
    --------------------------------------------
      LOOP:  cpu time     18.4317: real time     19.2770

 eigenvalue-minimisations  : 25592
 total energy-change (2. order) : 0.1938680E-01  (-0.2434680E-01)
 number of electron     428.9999771 magnetization 
 augmentation part       96.9575211 magnetization 

 Broyden mixing:
  rms(total) = 0.89676E-01    rms(broyden)= 0.89561E-01
  rms(prec ) = 0.12544E+00
  weight for this iteration     100.00

[...]
    135       5.6487      2.00000
    136       5.7758      2.00000
    137       5.9282      2.00000
    138       6.0325      2.00000
    139       6.1505      2.00000
    140       6.1975      2.00000
    141       6.2222      2.00000
    142       6.3725      2.00000
    143       6.4050      2.00000
    144       6.4376      2.00000
    145       6.4822      2.00000
    146       6.5208      2.00000
    147       6.5393      2.00000
    148       6.5743      2.00000
    149       6.6060      2.00000
    150       6.6352      2.00000
    151       6.6665      2.00000
    152       6.7039      2.00000
    153       6.7214      2.00000
    154       6.7441      2.00000
    155       6.8637      2.00000
    156       6.8846      2.00000
    157       6.9120      2.00000
    158       7.0245      2.00000
    159       7.0593      2.00000
    160       7.0827      2.00000
    161       7.1375      2.00000
    162       7.1859      2.00000
    163       7.2622      2.00000
    164       7.3482      2.00000
    165       7.4098      2.00000
    166       7.4315      2.00000
    167       7.4680      2.00000
    168       7.4902      2.00000
    169       7.5018      2.00000
    170       7.5394      2.00000
    171       7.5712      2.00000
    172       7.6040      2.00000
    173       7.6344      2.00000
    174       7.6695      2.00000
    175       7.6865      2.00000
    176       7.6944      2.00000
    177       7.7383      2.00000
    178       7.7844      2.00000
    179       7.8135      2.00000
    180       7.8529      2.00000
    181       7.8776      2.00000
    182       7.9023      2.00000
    183       7.9147      2.00000
    184       7.9547      2.00000
    185       7.9697      2.00000
    186       7.9918      2.00000
    187       8.0111      2.00000
    188       8.0329      2.00000
    189       8.0462      2.00000
    190       8.0546      2.00000
    191       8.0885      2.00000
    192       8.1088      2.00000
    193       8.1237      2.00000
    194       8.1424      2.00000
    195       8.1615      2.00000
    196       8.2060      2.00000
    197       8.2459      2.00000
    198       8.2581      2.00000
    199       8.2838      2.00000
    200       8.2988      2.00000
    201       8.3242      2.00000
    202       8.3537      2.00000
    203       8.3882      2.00000
    204       8.4359      2.00000
    205       8.4502      2.00000
    206       8.4892      2.00000
    207       8.5090      2.00000
    208       8.5769      2.00000
    209       8.6104      2.00000
    210       8.6233      2.00000
    211       8.6449      2.00000
    212       8.6715      2.00000
    213       8.6982      2.00000
    214       8.7201      2.00000
    215       8.7657      2.00000
    216       8.8083      2.00000
    217       9.0953      2.00000
    218       9.1821      2.00000
    219       9.2905      2.00000
    220       9.9178      0.00000
    221      10.8254      0.00000
    222      11.0145      0.00000
    223      11.1044      0.00000
    224      11.1401      0.00000
    225      11.1985      0.00000
    226      11.2410      0.00000
    227      11.2809      0.00000
    228      11.3405      0.00000
    229      11.3730      0.00000
    230      11.4410      0.00000
    231      11.4746      0.00000
    232      11.4963      0.00000
    233      11.5101      0.00000
    234      11.5725      0.00000
    235      11.5878      0.00000
    236      11.6234      0.00000
    237      11.6707      0.00000
    238      11.7248      0.00000
    239      11.7604      0.00000
    240      11.7878      0.00000
    241      11.8105      0.00000
    242      11.8621      0.00000
    243      11.9007      0.00000
    244      11.9296      0.00000
    245      11.9606      0.00000
    246      11.9809      0.00000
    247      12.0149      0.00000
    248      12.0480      0.00000
    249      12.0633      0.00000
    250      12.1187      0.00000
    251      12.1629      0.00000
    252      12.1732      0.00000
    253      12.2299      0.00000
    254      12.2687      0.00000
    255      12.3242      0.00000
    256      12.3581      0.00000
    257      12.4016      0.00000
    258      12.4219      0.00000
    259      12.4729      0.00000
    260      12.5451      0.00000


--------------------------------------------------------------------------------------------------------


 soft charge-density along one line, spin component           1
         0         1         2         3         4         5         6         7         8         9
 total charge-density along one line
 
 pseudopotential strength for first ion, spin component:           1
  5.775 -20.310  -0.001  -0.003   0.001   0.003   0.006  -0.002
-20.310   9.224  -0.002  -0.004   0.001   0.000   0.000  -0.000
 -0.001  -0.002  -9.766   0.003   0.000   6.009  -0.003  -0.000
 -0.003  -0.004   0.003  -9.765   0.001  -0.003   6.008  -0.001
  0.001   0.001   0.000   0.001  -9.764  -0.000  -0.001   6.006
  0.003   0.000   6.009  -0.003  -0.000   7.936   0.002   0.000
  0.006   0.000  -0.003   6.008  -0.001   0.002   7.937   0.001
 -0.002  -0.000  -0.000  -0.001   6.006   0.000   0.001   7.937
  0.000   0.000   0.001   0.000  -0.001  -0.001  -0.000   0.002
  0.002   0.001  -0.003  -0.001   0.000   0.003   0.002  -0.000
  0.000  -0.000   0.001  -0.002  -0.000  -0.001   0.003   0.000
  0.001   0.000   0.000   0.001  -0.003  -0.000  -0.001   0.003
  0.001   0.000   0.001   0.000   0.000  -0.001   0.000  -0.001
  0.000   0.000   0.001   0.000  -0.002  -0.001  -0.000   0.002
  0.002   0.001  -0.003  -0.002   0.000   0.004   0.002  -0.000
  0.000  -0.000   0.001  -0.003  -0.000  -0.001   0.004   0.000
  0.001   0.000   0.000   0.001  -0.003  -0.000  -0.001   0.004
  0.001   0.000   0.001   0.000   0.000  -0.002   0.000  -0.001
 total augmentation occupancy for first ion, spin component:           1
  1.995  -0.049   0.000  -0.000  -0.000   0.000  -0.000  -0.000   0.001   0.008   0.000   0.001   0.000  -0.000  -0.006  -0.000
 -0.049   1.311   0.002   0.000  -0.001   0.001   0.003   0.003  -0.001   0.012   0.014  -0.001   0.014   0.002   0.001  -0.007
  0.000   0.002   1.996  -0.000  -0.000  -0.032   0.001   0.000  -0.000   0.001   0.000   0.000   0.001   0.000  -0.000  -0.000
 -0.000   0.000  -0.000   1.996  -0.000   0.001  -0.033  -0.000   0.000   0.008  -0.008  -0.001   0.000  -0.000  -0.005   0.006
 -0.000  -0.001  -0.000  -0.000   1.996   0.000  -0.000  -0.033   0.008   0.001  -0.000   0.001  -0.001  -0.005  -0.000   0.000
  0.000   0.001  -0.032   0.001   0.000   0.068  -0.001   0.000  -0.009   0.008  -0.003  -0.006  -0.005   0.006  -0.003   0.001
 -0.000   0.003   0.001  -0.033  -0.000  -0.001   0.072   0.000  -0.006  -0.010   0.013  -0.007  -0.001   0.004   0.007  -0.006
 -0.000   0.003   0.000  -0.000  -0.033   0.000   0.000   0.071  -0.010  -0.006  -0.001   0.008   0.003   0.007   0.004   0.000
  0.001  -0.001  -0.000   0.000   0.008  -0.009  -0.006  -0.010   3.290  -0.000  -0.002  -0.009   0.000  -1.379   0.004   0.002
  0.008   0.012   0.001   0.008   0.001   0.008  -0.010  -0.006  -0.000   3.307   0.034  -0.006  -0.053   0.004  -1.388  -0.014
  0.000   0.014   0.000  -0.008  -0.000  -0.003   0.013  -0.001  -0.002   0.034   2.546  -0.002  -0.019   0.002  -0.014  -1.149
  0.001  -0.001   0.000  -0.001   0.001  -0.006  -0.007   0.008  -0.009  -0.006  -0.002   3.285   0.003   0.015   0.005   0.000
  0.000   0.014   0.001   0.000  -0.001  -0.005  -0.001   0.003   0.000  -0.053  -0.019   0.003   2.533   0.000   0.022   0.008
 -0.000   0.002   0.000  -0.000  -0.005   0.006   0.004   0.007  -1.379   0.004   0.002   0.015   0.000   0.589  -0.003  -0.001
 -0.006   0.001  -0.000  -0.005  -0.000  -0.003   0.007   0.004   0.004  -1.388  -0.014   0.005   0.022  -0.003   0.594   0.006
 -0.000  -0.007  -0.000   0.006   0.000   0.001  -0.006   0.000   0.002  -0.014  -1.149   0.000   0.008  -0.001   0.006   0.526
 -0.001   0.003  -0.000   0.001  -0.001   0.003   0.006  -0.003   0.015   0.006   0.000  -1.381  -0.002  -0.010  -0.003   0.000
 -0.001  -0.005  -0.000  -0.000  -0.000   0.002   0.000  -0.000  -0.000   0.022   0.008  -0.002  -1.138  -0.000  -0.009  -0.003


------------------------ aborting loop because EDIFF is reached ----------------------------------------


    CHARGE:  cpu time      0.1854: real time      0.2892
    FORLOC:  cpu time      0.0366: real time      0.0368
    FORNL :  cpu time      4.8975: real time      5.1953
    STRESS:  cpu time      3.6293: real time      3.7621
    FORCOR:  cpu time      0.0425: real time      0.0426
    FORHAR:  cpu time      0.1474: real time      0.1481
    MIXING:  cpu time      0.4585: real time      0.5642
    OFIELD:  cpu time      0.0001: real time      0.0001

  FORCE on cell =-STRESS in cart. coord.  units (eV):
  Direction    XX          YY          ZZ          XY          YZ          ZX
  --------------------------------------------------------------------------------------
  Alpha Z  3699.45680  3699.45680  3699.45680
  Ewald  -15291.27866-15309.38042-15280.46849   -14.31006    -4.40023    20.58269
  Hartree  2676.29508  2662.03356  2684.80358   -11.73975    -4.82535    19.28307
  E(xc)   -1991.69052 -1991.72037 -1991.72631    -0.01232     0.03348    -0.02512
  Local    3474.71006  3507.08036  3456.37958    26.57603     8.86643   -38.08250
  n-local  -504.69933  -502.68836  -504.74495    -0.61871    -0.94691    -1.38792
  augment  1346.53021  1346.71243  1346.55919    -0.00889     0.04671    -0.30833
  Kinetic  6524.66026  6523.61243  6524.58325     0.50557     1.35679     0.45775
  Fock        0.00000     0.00000     0.00000     0.00000     0.00000     0.00000
  -------------------------------------------------------------------------------------
  Total     -66.01609   -64.89356   -65.15734     0.39188     0.13092     0.51965
  in kB    -185.63195  -182.47547  -183.21721     1.10193     0.36814     1.46121
  external pressure =     -183.77 kB  Pullay stress =        0.00 kB


 VOLUME and BASIS-vectors are now :
 -----------------------------------------------------------------------------
  energy-cutoff  :      250.00
  volume of cell :      569.78
      direct lattice vectors                 reciprocal lattice vectors
    13.160000000  0.000000000  0.000000000     0.075987842  0.000000000  0.000000000
     0.000000000  6.580000000  0.000000000     0.000000000  0.151975684  0.000000000
     0.000000000  0.000000000  6.580000000     0.000000000  0.000000000  0.151975684

  length of vectors
    13.160000000  6.580000000  6.580000000     0.075987842  0.151975684  0.151975684


 FORCES acting on ions
    electron-ion (+dipol)            ewald-force                    non-local-force                 convergence-correction
 -----------------------------------------------------------------------------------------------
   -.210E+02 -.403E+02 -.382E+02   0.212E+02 0.398E+02 0.377E+02   -.164E+00 0.153E+00 -.593E-01   -.395E-04 -.160E-04 0.363E-05
   0.476E+02 0.154E+01 0.558E+00   -.468E+02 -.152E+01 -.508E+00   -.420E+00 -.244E-01 -.364E-01   0.192E-04 -.206E-04 -.233E-04
   -.175E+02 0.403E+02 -.194E+02   0.171E+02 -.398E+02 0.194E+02   0.327E+00 -.214E+00 -.223E-01   -.942E-05 -.456E-06 0.870E-05
   0.229E+02 -.357E+02 -.367E+02   -.232E+02 0.352E+02 0.362E+02   0.479E+00 0.134E+00 0.112E+00   -.244E-04 -.583E-05 -.878E-05
   0.164E+02 0.665E+02 -.467E+02   -.169E+02 -.658E+02 0.464E+02   0.253E+00 -.126E+00 -.299E-01   -.104E-04 -.269E-04 0.238E-04
   0.334E+02 -.218E+02 -.102E+01   -.335E+02 0.214E+02 0.102E+01   0.223E+00 0.925E-01 -.440E-01   0.168E-04 0.763E-06 0.254E-05
   0.237E+02 0.218E+02 0.989E+00   -.238E+02 -.214E+02 -.102E+01   -.881E-01 -.697E-01 0.579E-01   0.297E-04 -.201E-05 -.480E-05
   -.704E+01 -.382E+02 0.393E+02   0.720E+01 0.379E+02 -.390E+02   -.158E+00 0.321E-02 0.579E-01   -.245E-05 -.725E-05 0.109E-04
   -.209E+01 0.432E+02 -.408E+02   0.180E+01 -.428E+02 0.406E+02   0.430E+00 -.117E-01 -.115E+00   -.528E-04 0.169E-04 -.263E-05
   -.475E+02 0.433E+02 0.208E+02   0.476E+02 -.428E+02 -.209E+02   0.475E-01 -.106E+00 0.300E-01   -.424E-05 -.617E-05 -.119E-04
   -.136E+02 0.714E+02 0.501E+02   0.140E+02 -.709E+02 -.500E+02   -.510E+00 0.195E-01 0.897E-01   -.144E-04 -.256E-04 -.229E-04
   -.619E+02 0.314E+02 0.102E+02   0.614E+02 -.313E+02 -.104E+02   0.246E+00 0.498E-01 0.810E-01   0.697E-05 -.199E-04 -.580E-05
   -.578E+02 -.433E+02 -.209E+02   0.581E+02 0.428E+02 0.209E+02   -.388E+00 0.588E-01 -.225E-01   0.170E-04 0.478E-05 0.101E-04
   0.614E+02 -.169E+01 -.587E+00   -.610E+02 0.164E+01 0.547E+00   0.607E-01 0.406E-01 0.244E-01   -.382E-05 0.185E-04 0.242E-04
   -.136E+02 -.714E+02 0.501E+02   0.134E+02 0.709E+02 -.500E+02   -.114E+00 -.282E-01 0.520E-01   -.195E-04 0.248E-04 -.194E-04
   -.609E+02 0.248E+02 -.795E+01   0.609E+02 -.246E+02 0.820E+01   -.329E+00 0.829E-01 -.120E+00   0.790E-05 -.172E-04 0.618E-05
   -.343E+02 -.341E+02 0.323E+02   0.345E+02 0.337E+02 -.319E+02   -.347E+00 0.296E-01 0.133E+00   -.160E-04 -.835E-05 -.697E-05
   0.467E+02 -.186E+02 0.866E+00   -.469E+02 0.181E+02 -.859E+00   0.228E+00 -.137E-01 0.199E-01   0.904E-05 0.846E-06 -.334E-05
   0.188E+02 0.186E+02 0.151E+02   -.187E+02 -.181E+02 -.147E+02   -.280E+00 -.280E-01 0.544E-01   0.219E-04 -.208E-04 0.178E-05
   0.563E+02 -.165E+01 0.568E+00   -.560E+02 0.164E+01 -.547E+00   0.186E+00 -.120E-01 0.126E-01   0.123E-04 0.189E-04 -.226E-04
   -.348E+01 -.713E+02 -.501E+02   0.345E+01 0.709E+02 0.500E+02   -.172E+00 -.198E+00 -.575E-01   -.285E-04 0.248E-04 0.229E-04
   0.656E+02 -.233E+02 -.189E+02   -.659E+02 0.231E+02 0.187E+02   0.468E+00 -.113E+00 -.122E+00   -.415E-05 0.247E-04 -.585E-05
   0.665E+02 0.165E+01 -.538E+00   -.665E+02 -.164E+01 0.547E+00   0.506E+00 0.140E-01 -.278E-01   0.168E-04 -.164E-04 0.229E-04
   0.445E+02 -.233E+02 0.189E+02   -.448E+02 0.231E+02 -.187E+02   0.305E+00 -.157E+00 0.154E+00   0.785E-05 0.233E-04 0.631E-05
   -.814E+02 -.432E+02 0.209E+02   0.817E+02 0.428E+02 -.209E+02   -.349E+00 -.704E-01 -.400E-01   0.186E-04 0.128E-05 -.728E-05
   0.244E+02 0.381E+02 -.392E+02   -.244E+02 -.379E+02 0.390E+02   0.120E+00 0.156E+00 -.133E+00   -.150E-05 0.975E-05 -.126E-04
   0.445E+02 0.233E+02 -.189E+02   -.448E+02 -.231E+02 0.187E+02   0.320E+00 0.121E+00 -.176E+00   0.784E-05 -.221E-04 -.746E-05
   -.671E+02 -.314E+02 0.102E+02   0.670E+02 0.313E+02 -.104E+02   -.854E-01 -.698E-01 -.408E-03   0.901E-05 0.152E-04 -.215E-05
   -.722E+02 -.314E+02 -.103E+02   0.720E+02 0.313E+02 0.104E+02   -.166E+00 -.557E-01 0.502E-01   0.103E-04 0.154E-04 0.307E-05
   -.327E+01 0.233E+02 -.110E+01   0.353E+01 -.231E+02 0.109E+01   -.274E+00 0.153E+00 0.129E-01   0.369E-04 0.271E-05 0.223E-05
   -.225E+02 0.432E+02 0.409E+02   0.229E+02 -.428E+02 -.406E+02   -.313E+00 0.847E-01 0.117E+00   -.426E-04 0.182E-04 0.426E-05
   0.143E+02 0.382E+02 0.393E+02   -.144E+02 -.379E+02 -.390E+02   0.604E-01 0.118E+00 0.820E-01   0.887E-05 0.970E-05 0.115E-04
 -----------------------------------------------------------------------------------------------
   -.101E+00 -.119E-01 -.133E+00   0.966E-12 -.142E-12 0.426E-13   0.101E+00 0.119E-01 0.133E+00   -.165E-04 0.149E-04 -.294E-05
 
 
 POSITION                                       TOTAL-FORCE (eV/Angst)
 -----------------------------------------------------------------------------------
      4.93500      1.64500      1.64500         0.097383     -0.336178     -0.499775
      9.87000      3.29000      0.00000         0.345517     -0.008698      0.013972
      1.64500      4.93500      1.64500        -0.008546      0.341392     -0.065318
      0.00000      3.29000      0.00000         0.201500     -0.349511     -0.371291
      6.58000      3.29000      3.29000        -0.241438      0.614436     -0.297304
      8.22500      1.64500      1.64500         0.070280     -0.280156     -0.051947
      8.22500      4.93500      4.93500        -0.152252      0.323827      0.031481
      0.00000      3.29000      3.29000         0.003902     -0.291670      0.307584
      4.93500      4.93500      1.64500         0.143191      0.344675     -0.270765
      1.64500      4.93500      4.93500         0.080947      0.356224      0.000482
      6.58000      3.29000      0.00000        -0.167619      0.510610      0.183150
      3.29000      3.29000      0.00000        -0.183255      0.116881     -0.164991
      1.64500      1.64500      1.64500        -0.092369     -0.371556     -0.019364
      9.87000      0.00000      3.29000         0.498237     -0.010318     -0.015677
      6.58000      0.00000      0.00000        -0.309880     -0.524950      0.172083
      3.29000      3.29000      3.29000        -0.319894      0.294604      0.132808
      4.93500      1.64500      4.93500        -0.106115     -0.410091      0.534227
      8.22500      1.64500      4.93500         0.070996     -0.454001      0.026705
     11.51500      4.93500      1.64500        -0.107869      0.424433      0.463100
      9.87000      0.00000      0.00000         0.452544     -0.018395      0.033279
      6.58000      0.00000      3.29000        -0.198491     -0.665366     -0.195441
     11.51500      1.64500      4.93500         0.178436     -0.352706     -0.358553
      9.87000      3.29000      3.29000         0.440222      0.025601     -0.018988
     11.51500      1.64500      1.64500        -0.062808     -0.384824      0.351848
      1.64500      1.64500      4.93500        -0.126731     -0.432867      0.021572
      0.00000      0.00000      0.00000         0.151509      0.374048     -0.346394
     11.51500      4.93500      4.93500        -0.039961      0.383347     -0.359675
      3.29000      0.00000      0.00000        -0.222814     -0.205916     -0.191529
      3.29000      0.00000      3.29000        -0.372188     -0.194380      0.201757
      8.22500      4.93500      1.64500        -0.016749      0.376092      0.008080
      4.93500      4.93500      4.93500         0.030080      0.406752      0.368368
      0.00000      0.00000      3.29000        -0.035768      0.398662      0.376514
 -----------------------------------------------------------------------------------
    total drift:                               -0.000047     -0.000010      0.000001


--------------------------------------------------------------------------------------------------------



  FREE ENERGIE OF THE ION-ELECTRON SYSTEM (eV)
  ---------------------------------------------------
  free  energy   TOTEN  =      -375.22187065 eV

  energy  without entropy=     -375.21799635  energy(sigma->0) =     -375.21993350
 


--------------------------------------------------------------------------------------------------------


    POTLOK:  cpu time      0.0139: real time      0.0140


--------------------------------------------------------------------------------------------------------


     LOOP+:  cpu time    520.5253: real time    545.4667
    4ORBIT:  cpu time      0.0000: real time      0.0000

 total amount of memory used by VASP MPI-rank0    61987. kBytes
=======================================================================

   base      :      30000. kBytes
   nonl-proj :       9945. kBytes
   fftplans  :        778. kBytes
   grid      :       1458. kBytes
   one-center:         46. kBytes
   wavefun   :      19760. kBytes
 
  
  
 General timing and accounting informations for this job:
 ========================================================
  
                  Total CPU time used (sec):      582.786
                            User time (sec):      573.028
                          System time (sec):        9.758
                         Elapsed time (sec):      619.392
  
                   Maximum memory used (kb):      113944.
                   Average memory used (kb):          N/A
  
                          Minor page faults:        20360
                          Major page faults:            0
                 Voluntary context switches:          236
