 vasp.6.3.1 04May22 (build Jul 26 2022 04:02:40) complex                        
  
 executed on             LinuxIFC date 2023.11.30  02:38:44
 running on   48 total cores
 distrk:  each k-point on   48 cores,    1 groups
 distr:  one band on NCORE=  12 cores,    4 groups


--------------------------------------------------------------------------------------------------------


 INCAR:
   ISTART = 0
   NWRITE = 2
   PREC = Accurate
   ENCUT = 250
   GGA = PE
   NSW = 0
   ISIF = 2
   ISYM = 2
   NBLOCK = 1
   KBLOCK = 1
   IBRION = -1
   NELM = 80
   EDIFF = 1E-08
   EDIFFG = -0.01
   ALGO = Normal
   LDIAG = .TRUE.
   LREAL = .FALSE.
   ISMEAR = 0
   SIGMA = 0.02
   ICHARG = 2
   LPLANE = .TRUE.
   NPAR = 4
   LSCALU = .FALSE.
   NSIM = 4
   LWAVE = .FALSE.
   LCHARG = .FALSE.
   ICORELEVEL = 1

 POTCAR:    PAW_PBE Nb_sv 25May2007               
 POTCAR:    PAW_PBE Mo_sv 02Feb2006               
 POTCAR:    PAW_PBE Ta_pv 07Sep2000               
 POTCAR:    PAW_PBE W_sv 04Sep2015                
 POTCAR:    PAW_PBE Nb_sv 25May2007               
   SHA256 =  0e8fc07c9fcd1164cf2ade22d0399fd28f85e91cd773dfa6cf24839a48c95e24 Nb_sv/POTCAR          
   COPYR  = (c) Copyright 25May2007 Georg Kresse                                                    
   COPYR  = This file is part of the software VASP. Any use, copying, and all other rights are regul
   COPYR  = If you do not have a valid VASP license, you may not use, copy or distribute this file. 
   VRHFIN =Nb: 4p5s4d                                                                               
   LEXCH  = PE                                                                                      
   EATOM  =  1555.1913 eV,  114.3033 Ry                                                             
                                                                                                    
   TITEL  = PAW_PBE Nb_sv 25May2007                                                                 
   LULTRA =        F    use ultrasoft PP ?                                                          
   IUNSCR =        1    unscreen: 0-lin 1-nonlin 2-no                                               
   RPACOR =    1.800    partial core radius                                                         
   POMASS =   92.910; ZVAL   =   13.000    mass and valenz                                          
   RCORE  =    2.400    outmost cutoff radius                                                       
   RWIGS  =    2.400; RWIGS  =    1.270    wigner-seitz radius (au A)                               
   ENMAX  =  293.235; ENMIN  =  219.927 eV                                                          
   ICORE  =        3    local potential                                                             
   LCOR   =        T    correct aug charges                                                         
   LPAW   =        T    paw PP                                                                      
   EAUG   =  455.659                                                                                
   DEXC   =    0.000                                                                                
   RMAX   =    2.456    core radius for proj-oper                                                   
   RAUG   =    1.300    factor for augmentation sphere                                              
   RDEP   =    2.451    radius for radial grids                                                     
   RDEPT  =    1.956    core radius for aug-charge                                                  
                                                                                                    
   Atomic configuration                                                                             
   11 entries                                                                                       
     n  l   j            E        occ.                                                              
     1  0  0.50    -18805.2457   2.0000                                                             
     2  0  0.50     -2630.2869   2.0000                                                             
     2  1  1.50     -2348.4046   6.0000                                                             
     3  0  0.50      -438.8757   2.0000                                                             
     3  1  1.50      -346.7588   6.0000                                                             
     3  2  2.50      -196.2560  10.0000                                                             
     4  0  0.50       -58.3859   2.0000                                                             
     5  0  0.50        -3.9816   1.0000                                                             
     4  1  1.50       -34.5141   6.0000                                                             
     4  2  2.50        -3.0408   4.0000                                                             
     4  3  2.50        -1.3606   0.0000                                                             
   Description                                                                                      
     l       E           TYP  RCUT    TYP  RCUT                                                     
     0    -58.3859094     23  2.200                                                                 
     0     -3.9816262     23  2.200                                                                 
     1    -34.5140738     23  2.200                                                                 
     1     13.6058260     23  2.200                                                                 
     2     -3.0408010     23  2.200                                                                 
     2     -0.1283038     23  2.200                                                                 
     3     -1.3605826     23  2.400                                                                 
  local pseudopotential read in
  partial core-charges read in
  partial kinetic energy density read in
  atomic valenz-charges read in
  non local Contribution for L=           0  read in
    real space projection operators read in
  non local Contribution for L=           0  read in
    real space projection operators read in
  non local Contribution for L=           1  read in
    real space projection operators read in
  non local Contribution for L=           1  read in
    real space projection operators read in
  non local Contribution for L=           2  read in
    real space projection operators read in
  non local Contribution for L=           2  read in
    real space projection operators read in
    PAW grid and wavefunctions read in
 
   number of l-projection  operators is LMAX  =           6
   number of lm-projection operators is LMMAX =          18
 
 POTCAR:    PAW_PBE Mo_sv 02Feb2006               
   SHA256 =  2731df97e41766cc617548c5a8267718fdef1f509ac6bafa01e745abea2bdfaa Mo_sv/POTCAR          
   COPYR  = (c) Copyright 02Feb2006 Georg Kresse                                                    
   COPYR  = This file is part of the software VASP. Any use, copying, and all other rights are regul
   COPYR  = If you do not have a valid VASP license, you may not use, copy or distribute this file. 
   VRHFIN =Mo: 4p5s4d                                                                               
   LEXCH  = PE                                                                                      
   EATOM  =  1862.2866 eV,  136.8742 Ry                                                             
                                                                                                    
   TITEL  = PAW_PBE Mo_sv 02Feb2006                                                                 
   LULTRA =        F    use ultrasoft PP ?                                                          
   IUNSCR =        1    unscreen: 0-lin 1-nonlin 2-no                                               
   RPACOR =    2.200    partial core radius                                                         
   POMASS =   95.940; ZVAL   =   14.000    mass and valenz                                          
   RCORE  =    2.500    outmost cutoff radius                                                       
   RWIGS  =    2.750; RWIGS  =    1.455    wigner-seitz radius (au A)                               
   ENMAX  =  242.676; ENMIN  =  182.007 eV                                                          
   ICORE  =        3    local potential                                                             
   LCOR   =        T    correct aug charges                                                         
   LPAW   =        T    paw PP                                                                      
   EAUG   =  446.014                                                                                
   DEXC   =    0.000                                                                                
   RMAX   =    2.563    core radius for proj-oper                                                   
   RAUG   =    1.300    factor for augmentation sphere                                              
   RDEP   =    2.641    radius for radial grids                                                     
   RDEPT  =    2.031    core radius for aug-charge                                                  
                                                                                                    
   Atomic configuration                                                                             
   11 entries                                                                                       
     n  l   j            E        occ.                                                              
     1  0  0.50    -19819.0341   2.0000                                                             
     2  0  0.50     -2799.0127   2.0000                                                             
     2  1  1.50     -2502.0276   6.0000                                                             
     3  0  0.50      -476.4449   2.0000                                                             
     3  1  1.50      -379.1496   6.0000                                                             
     3  2  2.50      -220.9367  10.0000                                                             
     4  0  0.50       -64.3378   2.0000                                                             
     5  0  0.50        -4.0862   1.0000                                                             
     4  1  1.50       -38.4773   6.0000                                                             
     4  2  2.50        -3.7535   5.0000                                                             
     4  3  2.50        -1.3606   0.0000                                                             
   Description                                                                                      
     l       E           TYP  RCUT    TYP  RCUT                                                     
     0    -64.3377829     23  2.100                                                                 
     0     -4.0861640     23  2.400                                                                 
     1    -38.4772993     23  2.100                                                                 
     1     13.6058260     23  2.100                                                                 
     2     -3.7534941     23  2.400                                                                 
     2     -5.1140767     23  2.400                                                                 
     3     -4.0817478     23  2.500                                                                 
  local pseudopotential read in
  partial core-charges read in
  partial kinetic energy density read in
  atomic valenz-charges read in
  non local Contribution for L=           0  read in
    real space projection operators read in
  non local Contribution for L=           0  read in
    real space projection operators read in
  non local Contribution for L=           1  read in
    real space projection operators read in
  non local Contribution for L=           1  read in
    real space projection operators read in
  non local Contribution for L=           2  read in
    real space projection operators read in
  non local Contribution for L=           2  read in
    real space projection operators read in
    PAW grid and wavefunctions read in
 
   number of l-projection  operators is LMAX  =           6
   number of lm-projection operators is LMMAX =          18
 
 POTCAR:    PAW_PBE Ta_pv 07Sep2000               
   SHA256 =  00d0a14a36c127416459414afb8617d9754996fffa60a2465888e660b20a452f Ta_pv/POTCAR          
   COPYR  = (c) Copyright 07Sep2000 Georg Kresse                                                    
   COPYR  = This file is part of the software VASP. Any use, copying, and all other rights are regul
   COPYR  = If you do not have a valid VASP license, you may not use, copy or distribute this file. 
   VRHFIN =Ta:  5p6s5d                                                                              
   LEXCH  = PE                                                                                      
   EATOM  =  1047.1984 eV,   76.9669 Ry                                                             
                                                                                                    
   TITEL  = PAW_PBE Ta_pv 07Sep2000                                                                 
   LULTRA =        F    use ultrasoft PP ?                                                          
   IUNSCR =        1    unscreen: 0-lin 1-nonlin 2-no                                               
   RPACOR =    2.330    partial core radius                                                         
   POMASS =  180.948; ZVAL   =   11.000    mass and valenz                                          
   RCORE  =    2.500    outmost cutoff radius                                                       
   RWIGS  =    2.840; RWIGS  =    1.503    wigner-seitz radius (au A)                               
   ENMAX  =  223.667; ENMIN  =  167.750 eV                                                          
   RCLOC  =    2.205    cutoff for local pot                                                        
   LCOR   =        T    correct aug charges                                                         
   LPAW   =        T    paw PP                                                                      
   EAUG   =  377.421                                                                                
   DEXC   =    0.000                                                                                
   RMAX   =    2.551    core radius for proj-oper                                                   
   RAUG   =    1.300    factor for augmentation sphere                                              
   RDEP   =    2.526    radius for radial grids                                                     
   RDEPT  =    2.132    core radius for aug-charge                                                  
                                                                                                    
   Atomic configuration                                                                             
   15 entries                                                                                       
     n  l   j            E        occ.                                                              
     1  0  0.50    -67341.2801   2.0000                                                             
     2  0  0.50    -11566.9369   2.0000                                                             
     2  1  1.50    -10134.1175   6.0000                                                             
     3  0  0.50     -2648.5614   2.0000                                                             
     3  1  1.50     -2222.6006   6.0000                                                             
     3  2  2.50     -1726.3114  10.0000                                                             
     4  0  0.50      -538.6957   2.0000                                                             
     4  1  1.50      -399.0125   6.0000                                                             
     4  2  2.50      -220.3955  10.0000                                                             
     4  3  3.50       -23.0371  14.0000                                                             
     5  0  0.50       -71.2900   2.0000                                                             
     5  1  1.50       -37.8224   6.0000                                                             
     5  2  2.50        -2.6455   4.0000                                                             
     6  0  0.50        -4.9623   1.0000                                                             
     5  3  2.50        -1.3606   0.0000                                                             
   Description                                                                                      
     l       E           TYP  RCUT    TYP  RCUT                                                     
     1    -37.8224449     23  2.500                                                                 
     1      1.3605826     23  2.500                                                                 
     2     -2.6454718     23  2.500                                                                 
     2     -0.6258570     23  2.500                                                                 
     0     -4.9622674     23  2.500                                                                 
     0      4.7531427     23  2.500                                                                 
  local pseudopotential read in
  partial core-charges read in
  partial kinetic energy density read in
  atomic valenz-charges read in
  non local Contribution for L=           1  read in
    real space projection operators read in
  non local Contribution for L=           1  read in
    real space projection operators read in
  non local Contribution for L=           2  read in
    real space projection operators read in
  non local Contribution for L=           2  read in
    real space projection operators read in
  non local Contribution for L=           0  read in
    real space projection operators read in
  non local Contribution for L=           0  read in
    real space projection operators read in
    PAW grid and wavefunctions read in
 
   number of l-projection  operators is LMAX  =           6
   number of lm-projection operators is LMMAX =          18
 
 POTCAR:    PAW_PBE W_sv 04Sep2015                
   SHA256 =  931c2d770f65867ef30f3db3421922900fc0890ebac5c3e12f63b6a2064023d7 W_sv/POTCAR           
   COPYR  = (c) Copyright 04Sep2015 Georg Kresse                                                    
   COPYR  = This file is part of the software VASP. Any use, copying, and all other rights are regul
   COPYR  = If you do not have a valid VASP license, you may not use, copy or distribute this file. 
   VRHFIN =W : 5p6s5d                                                                               
   LEXCH  = PE                                                                                      
   EATOM  =  1865.5791 eV,  137.1162 Ry                                                             
                                                                                                    
   TITEL  = PAW_PBE W_sv 04Sep2015                                                                  
   LULTRA =        F    use ultrasoft PP ?                                                          
   IUNSCR =        1    unscreen: 0-lin 1-nonlin 2-no                                               
   RPACOR =    2.330    partial core radius                                                         
   POMASS =  183.850; ZVAL   =   14.000    mass and valenz                                          
   RCORE  =    2.500    outmost cutoff radius                                                       
   RWIGS  =    2.750; RWIGS  =    1.455    wigner-seitz radius (au A)                               
   ENMAX  =  223.057; ENMIN  =  167.293 eV                                                          
   ICORE  =        3    local potential                                                             
   LCOR   =        T    correct aug charges                                                         
   LPAW   =        T    paw PP                                                                      
   EAUG   =  373.438                                                                                
   DEXC   =    0.000                                                                                
   RMAX   =    2.565    core radius for proj-oper                                                   
   RAUG   =    1.300    factor for augmentation sphere                                              
   RDEP   =    2.539    radius for radial grids                                                     
   RDEPT  =    2.126    core radius for aug-charge                                                  
                                                                                                    
   Atomic configuration                                                                             
   15 entries                                                                                       
     n  l   j            E        occ.                                                              
     1  0  0.50    -69465.5834   2.0000                                                             
     2  0  0.50    -11986.2640   2.0000                                                             
     2  1  1.50    -10479.8613   6.0000                                                             
     3  0  0.50     -2759.0756   2.0000                                                             
     3  1  1.50     -2313.1855   6.0000                                                             
     3  2  2.50     -1801.1183  10.0000                                                             
     4  0  0.50      -567.6789   2.0000                                                             
     4  1  1.50      -421.4692   6.0000                                                             
     4  2  2.50      -236.3471  10.0000                                                             
     4  3  3.50       -31.2665  14.0000                                                             
     5  0  0.50       -77.1084   2.0000                                                             
     6  0  0.50        -5.1438   1.0000                                                             
     5  1  1.50       -41.3856   6.0000                                                             
     5  2  2.50        -3.3185   5.0000                                                             
     5  3  2.50        -1.3606   0.0000                                                             
   Description                                                                                      
     l       E           TYP  RCUT    TYP  RCUT                                                     
     0    -77.1084470     23  2.100                                                                 
     0     -5.1437956     23  2.300                                                                 
     1    -41.3855615     23  2.500                                                                 
     1     -2.7211652     23  2.500                                                                 
     2     -3.3185025     23  2.500                                                                 
     2     -1.5965151     23  2.500                                                                 
     3     -1.3605826     23  2.500                                                                 
  local pseudopotential read in
  partial core-charges read in
  partial kinetic energy density read in
  kinetic energy density of atom read in
  atomic valenz-charges read in
  non local Contribution for L=           0  read in
    real space projection operators read in
  non local Contribution for L=           0  read in
    real space projection operators read in
  non local Contribution for L=           1  read in
    real space projection operators read in
  non local Contribution for L=           1  read in
    real space projection operators read in
  non local Contribution for L=           2  read in
    real space projection operators read in
  non local Contribution for L=           2  read in
    real space projection operators read in
    PAW grid and wavefunctions read in
 
   number of l-projection  operators is LMAX  =           6
   number of lm-projection operators is LMMAX =          18
 
  PAW_PBE Nb_sv 25May2007               :
 energy of atom  1       EATOM=-1555.1913
 kinetic energy error for atom=    0.2155 (will be added to EATOM!!)
  PAW_PBE Mo_sv 02Feb2006               :
 energy of atom  2       EATOM=-1862.2866
 kinetic energy error for atom=    0.1102 (will be added to EATOM!!)
  PAW_PBE Ta_pv 07Sep2000               :
 energy of atom  3       EATOM=-1047.1984
 kinetic energy error for atom=    0.0394 (will be added to EATOM!!)
  PAW_PBE W_sv 04Sep2015                :
 energy of atom  4       EATOM=-1865.5791
 kinetic energy error for atom=    0.0589 (will be added to EATOM!!)
 
 
 POSCAR: Nb-Mo-Ta-W alloy
  positions in direct lattice
  No initial velocities read in
 exchange correlation table for  LEXCH =        8
   RHO(1)=    0.500       N(1)  =     2000
   RHO(2)=  100.500       N(2)  =     4000
 


--------------------------------------------------------------------------------------------------------


 ion  position               nearest neighbor table
   1  0.250  0.750  0.250-   2 2.85   5 2.85   7 2.85   8 2.85  10 2.85  11 2.85  14 2.85  15 2.85
                             9 3.29   9 3.29
   2  0.000  0.000  0.000-   1 2.85   3 2.85   4 2.85   6 2.85   9 2.85  12 2.85  13 2.85  16 2.85
                            10 3.29  10 3.29
   3  0.750  0.250  0.250-   2 2.85   5 2.85   7 2.85   8 2.85  10 2.85  11 2.85  14 2.85  15 2.85
                             9 3.29   9 3.29
   4  0.750  0.250  0.750-   2 2.85   5 2.85   7 2.85   8 2.85  10 2.85  11 2.85  14 2.85  15 2.85

   5  0.500  0.000  0.500-   1 2.85   3 2.85   4 2.85   6 2.85   9 2.85  12 2.85  13 2.85  16 2.85
                            11 3.29  10 3.29  11 3.29  10 3.29
   6  0.750  0.750  0.750-   2 2.85   5 2.85   7 2.85   8 2.85  10 2.85  11 2.85  14 2.85  15 2.85
                             9 3.29   9 3.29
   7  0.500  0.000  0.000-   1 2.85   3 2.85   4 2.85   6 2.85   9 2.85  12 2.85  13 2.85  16 2.85
                            14 3.29  14 3.29
   8  0.000  0.500  0.500-   1 2.85   3 2.85   4 2.85   6 2.85   9 2.85  12 2.85  13 2.85  16 2.85
                            11 3.29  15 3.29  10 3.29  15 3.29  10 3.29  11 3.29
   9  0.750  0.750  0.250-   2 2.85   5 2.85   7 2.85   8 2.85  10 2.85  11 2.85  14 2.85  15 2.85
                             3 3.29   1 3.29   6 3.29   6 3.29   3 3.29   1 3.29
  10  0.000  0.000  0.500-   1 2.85   3 2.85   4 2.85   6 2.85   9 2.85  12 2.85  13 2.85  16 2.85
                             2 3.29   8 3.29   5 3.29   2 3.29   8 3.29   5 3.29
  11  0.500  0.500  0.500-   1 2.85   3 2.85   4 2.85   6 2.85   9 2.85  12 2.85  13 2.85  16 2.85
                             5 3.29  14 3.29   8 3.29  14 3.29   5 3.29   8 3.29
  12  0.250  0.750  0.750-   2 2.85   5 2.85   7 2.85   8 2.85  10 2.85  11 2.85  14 2.85  15 2.85
                            16 3.29  16 3.29
  13  0.250  0.250  0.250-   2 2.85   5 2.85   7 2.85   8 2.85  10 2.85  11 2.85  14 2.85  15 2.85
                            16 3.29  16 3.29
  14  0.500  0.500  0.000-   1 2.85   3 2.85   4 2.85   6 2.85   9 2.85  12 2.85  13 2.85  16 2.85
                            11 3.29  15 3.29   7 3.29  11 3.29   7 3.29  15 3.29
  15  0.000  0.500  0.000-   1 2.85   3 2.85   4 2.85   6 2.85   9 2.85  12 2.85  13 2.85  16 2.85
                            14 3.29   8 3.29   8 3.29  14 3.29
  16  0.250  0.250  0.750-   2 2.85   5 2.85   7 2.85   8 2.85  10 2.85  11 2.85  14 2.85  15 2.85
                            12 3.29  13 3.29  13 3.29  12 3.29
 
  LATTYP: Found a simple cubic cell.
 ALAT       =     6.5800000000
  
  Lattice vectors:
  
 A1 = (   6.5800000000,   0.0000000000,   0.0000000000)
 A2 = (   0.0000000000,   6.5800000000,   0.0000000000)
 A3 = (   0.0000000000,   0.0000000000,   6.5800000000)


Analysis of symmetry for initial positions (statically):
=====================================================================
 Subroutine PRICEL returns:
 Original cell was already a primitive cell.
 

 Routine SETGRP: Setting up the symmetry group for a 
 simple cubic supercell.


 Subroutine GETGRP returns: Found  1 space group operations
 (whereof  1 operations were pure point group operations)
 out of a pool of 48 trial point group operations.


The static configuration has the point symmetry C_1 .


Analysis of symmetry for dynamics (positions and initial velocities):
=====================================================================
 Subroutine PRICEL returns:
 Original cell was already a primitive cell.
 

 Routine SETGRP: Setting up the symmetry group for a 
 simple cubic supercell.


 Subroutine GETGRP returns: Found  1 space group operations
 (whereof  1 operations were pure point group operations)
 out of a pool of 48 trial point group operations.


The dynamic configuration has the point symmetry C_1 .


 Subroutine INISYM returns: Found  1 space group operations
 (whereof  1 operations are pure point group operations),
 and found     1 'primitive' translations


----------------------------------------------------------------------------------------

                                     Primitive cell                                     

  volume of cell :     284.8903

  direct lattice vectors                    reciprocal lattice vectors
     6.580000000  0.000000000  0.000000000     0.151975684  0.000000000  0.000000000
     0.000000000  6.580000000  0.000000000     0.000000000  0.151975684  0.000000000
     0.000000000  0.000000000  6.580000000     0.000000000  0.000000000  0.151975684

  length of vectors
     6.580000000  6.580000000  6.580000000     0.151975684  0.151975684  0.151975684

  position of ions in fractional coordinates (direct lattice)
     0.250000000  0.750000000  0.250000000
     0.000000000  0.000000000  0.000000000
     0.750000000  0.250000000  0.250000000
     0.750000000  0.250000000  0.750000000
     0.500000000  0.000000000  0.500000000
     0.750000000  0.750000000  0.750000000
     0.500000000  0.000000000  0.000000000
     0.000000000  0.500000000  0.500000000
     0.750000000  0.750000000  0.250000000
     0.000000000  0.000000000  0.500000000
     0.500000000  0.500000000  0.500000000
     0.250000000  0.750000000  0.750000000
     0.250000000  0.250000000  0.250000000
     0.500000000  0.500000000  0.000000000
     0.000000000  0.500000000  0.000000000
     0.250000000  0.250000000  0.750000000

  ion indices of the primitive-cell ions
   primitive index   ion index
                 1           1
                 2           2
                 3           3
                 4           4
                 5           5
                 6           6
                 7           7
                 8           8
                 9           9
                10          10
                11          11
                12          12
                13          13
                14          14
                15          15
                16          16

----------------------------------------------------------------------------------------

 
 
 KPOINTS: K-Spacing Value to Generate K-Mesh: 0.03

Automatic generation of k-mesh.
 Grid dimensions read from file:
 generate k-points for:    5    5    5

 Generating k-lattice:

  Cartesian coordinates                     Fractional coordinates (reciprocal lattice)
     0.030395137  0.000000000  0.000000000     0.200000000  0.000000000  0.000000000
     0.000000000  0.030395137  0.000000000     0.000000000  0.200000000  0.000000000
     0.000000000  0.000000000  0.030395137     0.000000000  0.000000000  0.200000000

  Length of vectors
     0.030395137  0.030395137  0.030395137

  Shift w.r.t. Gamma in fractional coordinates (k-lattice)
     0.000000000  0.000000000  0.000000000

 
 Subroutine IBZKPT returns following result:
 ===========================================
 
 Found     63 irreducible k-points:
 
 Following reciprocal coordinates:
            Coordinates               Weight
  0.000000  0.000000  0.000000      1.000000
  0.200000  0.000000  0.000000      2.000000
  0.000000  0.200000  0.000000      2.000000
  0.000000  0.000000  0.200000      2.000000
  0.400000  0.000000  0.000000      2.000000
  0.000000  0.400000  0.000000      2.000000
  0.000000  0.000000  0.400000      2.000000
  0.200000  0.200000  0.000000      2.000000
  0.000000  0.200000  0.200000      2.000000
  0.200000  0.000000  0.200000      2.000000
 -0.200000  0.200000  0.000000      2.000000
 -0.200000  0.000000  0.200000      2.000000
  0.000000 -0.200000  0.200000      2.000000
  0.400000  0.200000  0.000000      2.000000
  0.000000  0.400000  0.200000      2.000000
  0.200000  0.000000  0.400000      2.000000
 -0.200000  0.400000  0.000000      2.000000
 -0.400000  0.000000  0.200000      2.000000
  0.000000  0.200000  0.400000      2.000000
  0.000000 -0.400000  0.200000      2.000000
 -0.200000  0.000000  0.400000      2.000000
  0.400000  0.000000  0.200000      2.000000
  0.000000 -0.200000  0.400000      2.000000
  0.400000 -0.200000  0.000000      2.000000
  0.200000  0.400000  0.000000      2.000000
  0.400000  0.400000  0.000000      2.000000
  0.000000  0.400000  0.400000      2.000000
  0.400000  0.000000  0.400000      2.000000
 -0.400000  0.400000  0.000000      2.000000
 -0.400000  0.000000  0.400000      2.000000
  0.000000 -0.400000  0.400000      2.000000
  0.200000  0.200000  0.200000      2.000000
 -0.200000  0.200000  0.200000      2.000000
 -0.200000 -0.200000  0.200000      2.000000
  0.200000 -0.200000  0.200000      2.000000
  0.400000  0.200000  0.200000      2.000000
  0.200000  0.400000  0.200000      2.000000
  0.200000  0.200000  0.400000      2.000000
 -0.200000  0.400000  0.200000      2.000000
 -0.400000  0.200000  0.200000      2.000000
 -0.200000  0.200000  0.400000      2.000000
 -0.400000 -0.200000  0.200000      2.000000
 -0.200000 -0.400000  0.200000      2.000000
 -0.200000 -0.200000  0.400000      2.000000
  0.200000 -0.400000  0.200000      2.000000
  0.400000 -0.200000  0.200000      2.000000
  0.200000 -0.200000  0.400000      2.000000
  0.400000  0.400000  0.200000      2.000000
  0.200000  0.400000  0.400000      2.000000
  0.400000  0.200000  0.400000      2.000000
 -0.400000  0.400000  0.200000      2.000000
 -0.400000  0.200000  0.400000      2.000000
 -0.200000  0.400000  0.400000      2.000000
 -0.400000 -0.400000  0.200000      2.000000
 -0.200000 -0.400000  0.400000      2.000000
 -0.400000 -0.200000  0.400000      2.000000
  0.400000 -0.400000  0.200000      2.000000
  0.400000 -0.200000  0.400000      2.000000
  0.200000 -0.400000  0.400000      2.000000
  0.400000  0.400000  0.400000      2.000000
 -0.400000  0.400000  0.400000      2.000000
 -0.400000 -0.400000  0.400000      2.000000
  0.400000 -0.400000  0.400000      2.000000
 
 Following cartesian coordinates:
            Coordinates               Weight
  0.000000  0.000000  0.000000      1.000000
  0.030395  0.000000  0.000000      2.000000
  0.000000  0.030395  0.000000      2.000000
  0.000000  0.000000  0.030395      2.000000
  0.060790  0.000000  0.000000      2.000000
  0.000000  0.060790  0.000000      2.000000
  0.000000  0.000000  0.060790      2.000000
  0.030395  0.030395  0.000000      2.000000
  0.000000  0.030395  0.030395      2.000000
  0.030395  0.000000  0.030395      2.000000
 -0.030395  0.030395  0.000000      2.000000
 -0.030395  0.000000  0.030395      2.000000
  0.000000 -0.030395  0.030395      2.000000
  0.060790  0.030395  0.000000      2.000000
  0.000000  0.060790  0.030395      2.000000
  0.030395  0.000000  0.060790      2.000000
 -0.030395  0.060790  0.000000      2.000000
 -0.060790  0.000000  0.030395      2.000000
  0.000000  0.030395  0.060790      2.000000
  0.000000 -0.060790  0.030395      2.000000
 -0.030395  0.000000  0.060790      2.000000
  0.060790  0.000000  0.030395      2.000000
  0.000000 -0.030395  0.060790      2.000000
  0.060790 -0.030395  0.000000      2.000000
  0.030395  0.060790  0.000000      2.000000
  0.060790  0.060790  0.000000      2.000000
  0.000000  0.060790  0.060790      2.000000
  0.060790  0.000000  0.060790      2.000000
 -0.060790  0.060790  0.000000      2.000000
 -0.060790  0.000000  0.060790      2.000000
  0.000000 -0.060790  0.060790      2.000000
  0.030395  0.030395  0.030395      2.000000
 -0.030395  0.030395  0.030395      2.000000
 -0.030395 -0.030395  0.030395      2.000000
  0.030395 -0.030395  0.030395      2.000000
  0.060790  0.030395  0.030395      2.000000
  0.030395  0.060790  0.030395      2.000000
  0.030395  0.030395  0.060790      2.000000
 -0.030395  0.060790  0.030395      2.000000
 -0.060790  0.030395  0.030395      2.000000
 -0.030395  0.030395  0.060790      2.000000
 -0.060790 -0.030395  0.030395      2.000000
 -0.030395 -0.060790  0.030395      2.000000
 -0.030395 -0.030395  0.060790      2.000000
  0.030395 -0.060790  0.030395      2.000000
  0.060790 -0.030395  0.030395      2.000000
  0.030395 -0.030395  0.060790      2.000000
  0.060790  0.060790  0.030395      2.000000
  0.030395  0.060790  0.060790      2.000000
  0.060790  0.030395  0.060790      2.000000
 -0.060790  0.060790  0.030395      2.000000
 -0.060790  0.030395  0.060790      2.000000
 -0.030395  0.060790  0.060790      2.000000
 -0.060790 -0.060790  0.030395      2.000000
 -0.030395 -0.060790  0.060790      2.000000
 -0.060790 -0.030395  0.060790      2.000000
  0.060790 -0.060790  0.030395      2.000000
  0.060790 -0.030395  0.060790      2.000000
  0.030395 -0.060790  0.060790      2.000000
  0.060790  0.060790  0.060790      2.000000
 -0.060790  0.060790  0.060790      2.000000
 -0.060790 -0.060790  0.060790      2.000000
  0.060790 -0.060790  0.060790      2.000000
 


--------------------------------------------------------------------------------------------------------




 Dimension of arrays:
   k-points           NKPTS =     63   k-points in BZ     NKDIM =     63   number of bands    NBANDS=    128
   number of dos      NEDOS =    301   number of ions     NIONS =     16
   non local maximal  LDIM  =      6   non local SUM 2l+1 LMDIM =     18
   total plane-waves  NPLWV =  46656
   max r-space proj   IRMAX =      1   max aug-charges    IRDMAX=   9546
   dimension x,y,z NGX =    36 NGY =   36 NGZ =   36
   dimension x,y,z NGXF=    72 NGYF=   72 NGZF=   72
   support grid    NGXF=    72 NGYF=   72 NGZF=   72
   ions per type =               6   2   3   5
   NGX,Y,Z   is equivalent  to a cutoff of   9.10,  9.10,  9.10 a.u.
   NGXF,Y,Z  is equivalent  to a cutoff of  18.19, 18.19, 18.19 a.u.

 SYSTEM =  unknown system                          
 POSCAR =  Nb-Mo-Ta-W alloy                        

 Startparameter for this run:
   NWRITE =      2    write-flag & timer
   PREC   = accura    normal or accurate (medium, high low for compatibility)
   ISTART =      0    job   : 0-new  1-cont  2-samecut
   ICHARG =      2    charge: 1-file 2-atom 10-const
   ISPIN  =      1    spin polarized calculation?
   LNONCOLLINEAR =      F non collinear calculations
   LSORBIT =      F    spin-orbit coupling
   INIWAV =      1    electr: 0-lowe 1-rand  2-diag
   LASPH  =      F    aspherical Exc in radial PAW
 Electronic Relaxation 1
   ENCUT  =  250.0 eV  18.37 Ry    4.29 a.u.   8.48  8.48  8.48*2*pi/ulx,y,z
   ENINI  =  250.0     initial cutoff
   ENAUG  =  455.7 eV  augmentation charge cutoff
   NELM   =     80;   NELMIN=  2; NELMDL= -5     # of ELM steps 
   EDIFF  = 0.1E-07   stopping-criterion for ELM
   LREAL  =      F    real-space projection
   NLSPLINE    = F    spline interpolate recip. space projectors
   LCOMPAT=      F    compatible to vasp.4.4
   GGA_COMPAT  = T    GGA compatible to vasp.4.4-vasp.4.6
   LMAXPAW     = -100 max onsite density
   LMAXMIX     =    2 max onsite mixed and CHGCAR
   VOSKOWN=      0    Vosko Wilk Nusair interpolation
   ROPT   =    0.00000   0.00000   0.00000   0.00000
 Ionic relaxation
   EDIFFG = -.1E-01   stopping-criterion for IOM
   NSW    =      0    number of steps for IOM
   NBLOCK =      1;   KBLOCK =      1    inner block; outer block 
   IBRION =     -1    ionic relax: 0-MD 1-quasi-New 2-CG
   NFREE  =      0    steps in history (QN), initial steepest desc. (CG)
   ISIF   =      2    stress and relaxation
   IWAVPR =     10    prediction:  0-non 1-charg 2-wave 3-comb
   ISYM   =      2    0-nonsym 1-usesym 2-fastsym
   LCORR  =      T    Harris-Foulkes like correction to forces

   POTIM  = 0.5000    time-step for ionic-motion
   TEIN   =    0.0    initial temperature
   TEBEG  =    0.0;   TEEND  =   0.0 temperature during run
   SMASS  =  -3.00    Nose mass-parameter (am)
   estimated Nose-frequenzy (Omega)   =  0.10E-29 period in steps = 0.13E+47 mass=  -0.989E-27a.u.
   SCALEE = 1.0000    scale energy and forces
   NPACO  =    256;   APACO  = 10.0  distance and # of slots for P.C.
   PSTRESS=    0.0 pullay stress

  Mass of Ions in am
   POMASS =  92.91 95.94180.95183.85
  Ionic Valenz
   ZVAL   =  13.00 14.00 11.00 14.00
  Atomic Wigner-Seitz radii
   RWIGS  =  -1.00 -1.00 -1.00 -1.00
  virtual crystal weights 
   VCA    =   1.00  1.00  1.00  1.00
   NELECT =     209.0000    total number of electrons
   NUPDOWN=      -1.0000    fix difference up-down

 DOS related values:
   EMIN   =  10.00;   EMAX   =-10.00  energy-range for DOS
   EFERMI =   0.00
   ISMEAR =     0;   SIGMA  =   0.02  broadening in eV -4-tet -1-fermi 0-gaus

 Electronic relaxation 2 (details)
   IALGO  =     38    algorithm
   LDIAG  =      T    sub-space diagonalisation (order eigenvalues)
   LSUBROT=      F    optimize rotation matrix (better conditioning)
   TURBO    =      0    0=normal 1=particle mesh
   IRESTART =      0    0=no restart 2=restart with 2 vectors
   NREBOOT  =      0    no. of reboots
   NMIN     =      0    reboot dimension
   EREF     =   0.00    reference energy to select bands
   IMIX   =      4    mixing-type and parameters
     AMIX     =   0.40;   BMIX     =  1.00
     AMIX_MAG =   1.60;   BMIX_MAG =  1.00
     AMIN     =   0.10
     WC   =   100.;   INIMIX=   1;  MIXPRE=   1;  MAXMIX= -45

 Intra band minimization:
   WEIMIN = 0.0000     energy-eigenvalue tresh-hold
   EBREAK =  0.20E-10  absolut break condition
   DEPER  =   0.30     relativ break condition  

   TIME   =   0.40     timestep for ELM

  volume/ion in A,a.u.               =      17.81       120.16
  Fermi-wavevector in a.u.,A,eV,Ry     =   1.476492  2.790165 29.661081  2.180028
  Thomas-Fermi vector in A             =   2.591012
 
 Write flags
   LWAVE        =      F    write WAVECAR
   LDOWNSAMPLE  =      F    k-point downsampling of WAVECAR
   LCHARG       =      F    write CHGCAR
   LVTOT        =      F    write LOCPOT, total local potential
   LVHAR        =      F    write LOCPOT, Hartree potential only
   LELF         =      F    write electronic localiz. function (ELF)
   LORBIT       =      0    0 simple, 1 ext, 2 COOP (PROOUT), +10 PAW based schemes


 Dipole corrections
   LMONO  =      F    monopole corrections only (constant potential shift)
   LDIPOL =      F    correct potential (dipole corrections)
   IDIPOL =      0    1-x, 2-y, 3-z, 4-all directions 
   EPSILON=  1.0000000 bulk dielectric constant

 Core level calculations are selected ICORELEVEL =  1
 Exchange correlation treatment:
   GGA     =    PE    GGA type
   LEXCH   =     8    internal setting for exchange type
   LIBXC   =     F    Libxc                    
   VOSKOWN =     0    Vosko Wilk Nusair interpolation
   LHFCALC =     F    Hartree Fock is set to
   LHFONE  =     F    Hartree Fock one center treatment
   AEXX    =    0.0000 exact exchange contribution

 Linear response parameters
   LEPSILON=     F    determine dielectric tensor
   LRPA    =     F    only Hartree local field effects (RPA)
   LNABLA  =     F    use nabla operator in PAW spheres
   LVEL    =     F    velocity operator in full k-point grid
   CSHIFT  =0.1000    complex shift for real part using Kramers Kronig
   OMEGAMAX=  -1.0    maximum frequency
   DEG_THRESHOLD= 0.2000000E-02 threshold for treating states as degnerate
   RTIME   =   -0.100 relaxation time in fs
  (WPLASMAI=    0.000 imaginary part of plasma frequency in eV, 0.658/RTIME)
   DFIELD  = 0.0000000 0.0000000 0.0000000 field for delta impulse in time
 
  Optional k-point grid parameters
   LKPOINTS_OPT  =     F    use optional k-point grid
   KPOINTS_OPT_MODE=     1    mode for optional k-point grid
 
 Orbital magnetization related:
   ORBITALMAG=     F  switch on orbital magnetization
   LCHIMAG   =     F  perturbation theory with respect to B field
   DQ        =  0.001000  dq finite difference perturbation B field
   LLRAUG    =     F  two centre corrections for induced B field



--------------------------------------------------------------------------------------------------------


 Static calculation
 charge density and potential will be updated during run
 non-spin polarized calculation
 Variant of blocked Davidson
 Davidson routine will perform the subspace rotation
 perform sub-space diagonalisation
    after iterative eigenvector-optimisation
 modified Broyden-mixing scheme, WC =      100.0
 initial mixing is a Kerker type mixing with AMIX =  0.4000 and BMIX =      1.0000
 Hartree-type preconditioning will be used
 using additional bands           23
 reciprocal scheme for non local part
 use partial core corrections
 calculate Harris-corrections to forces 
   (improved forces if not selfconsistent)
 use gradient corrections 
 use of overlap-Matrix (Vanderbilt PP)
 Gauss-broadening in eV      SIGMA  =   0.02


--------------------------------------------------------------------------------------------------------


  energy-cutoff  :      250.00
  volume of cell :      284.89
      direct lattice vectors                 reciprocal lattice vectors
     6.580000000  0.000000000  0.000000000     0.151975684  0.000000000  0.000000000
     0.000000000  6.580000000  0.000000000     0.000000000  0.151975684  0.000000000
     0.000000000  0.000000000  6.580000000     0.000000000  0.000000000  0.151975684

  length of vectors
     6.580000000  6.580000000  6.580000000     0.151975684  0.151975684  0.151975684


 
 k-points in units of 2pi/SCALE and weight: K-Spacing Value to Generate K-Mesh: 0.03
   0.00000000  0.00000000  0.00000000       0.008
   0.03039514  0.00000000  0.00000000       0.016
   0.00000000  0.03039514  0.00000000       0.016
   0.00000000  0.00000000  0.03039514       0.016
   0.06079027  0.00000000  0.00000000       0.016
   0.00000000  0.06079027  0.00000000       0.016
   0.00000000  0.00000000  0.06079027       0.016
   0.03039514  0.03039514  0.00000000       0.016
   0.00000000  0.03039514  0.03039514       0.016
   0.03039514  0.00000000  0.03039514       0.016
  -0.03039514  0.03039514  0.00000000       0.016
  -0.03039514  0.00000000  0.03039514       0.016
   0.00000000 -0.03039514  0.03039514       0.016
   0.06079027  0.03039514  0.00000000       0.016
   0.00000000  0.06079027  0.03039514       0.016
   0.03039514  0.00000000  0.06079027       0.016
  -0.03039514  0.06079027  0.00000000       0.016
  -0.06079027  0.00000000  0.03039514       0.016
   0.00000000  0.03039514  0.06079027       0.016
   0.00000000 -0.06079027  0.03039514       0.016
  -0.03039514  0.00000000  0.06079027       0.016
   0.06079027  0.00000000  0.03039514       0.016
   0.00000000 -0.03039514  0.06079027       0.016
   0.06079027 -0.03039514  0.00000000       0.016
   0.03039514  0.06079027  0.00000000       0.016
   0.06079027  0.06079027  0.00000000       0.016
   0.00000000  0.06079027  0.06079027       0.016
   0.06079027  0.00000000  0.06079027       0.016
  -0.06079027  0.06079027  0.00000000       0.016
  -0.06079027  0.00000000  0.06079027       0.016
   0.00000000 -0.06079027  0.06079027       0.016
   0.03039514  0.03039514  0.03039514       0.016
  -0.03039514  0.03039514  0.03039514       0.016
  -0.03039514 -0.03039514  0.03039514       0.016
   0.03039514 -0.03039514  0.03039514       0.016
   0.06079027  0.03039514  0.03039514       0.016
   0.03039514  0.06079027  0.03039514       0.016
   0.03039514  0.03039514  0.06079027       0.016
  -0.03039514  0.06079027  0.03039514       0.016
  -0.06079027  0.03039514  0.03039514       0.016
  -0.03039514  0.03039514  0.06079027       0.016
  -0.06079027 -0.03039514  0.03039514       0.016
  -0.03039514 -0.06079027  0.03039514       0.016
  -0.03039514 -0.03039514  0.06079027       0.016
   0.03039514 -0.06079027  0.03039514       0.016
   0.06079027 -0.03039514  0.03039514       0.016
   0.03039514 -0.03039514  0.06079027       0.016
   0.06079027  0.06079027  0.03039514       0.016
   0.03039514  0.06079027  0.06079027       0.016
   0.06079027  0.03039514  0.06079027       0.016
  -0.06079027  0.06079027  0.03039514       0.016
  -0.06079027  0.03039514  0.06079027       0.016
  -0.03039514  0.06079027  0.06079027       0.016
  -0.06079027 -0.06079027  0.03039514       0.016
  -0.03039514 -0.06079027  0.06079027       0.016
  -0.06079027 -0.03039514  0.06079027       0.016
   0.06079027 -0.06079027  0.03039514       0.016
   0.06079027 -0.03039514  0.06079027       0.016
   0.03039514 -0.06079027  0.06079027       0.016
   0.06079027  0.06079027  0.06079027       0.016
  -0.06079027  0.06079027  0.06079027       0.016
  -0.06079027 -0.06079027  0.06079027       0.016
   0.06079027 -0.06079027  0.06079027       0.016
 
 k-points in reciprocal lattice and weights: K-Spacing Value to Generate K-Mesh: 0.03
   0.00000000  0.00000000  0.00000000       0.008
   0.20000000  0.00000000  0.00000000       0.016
   0.00000000  0.20000000  0.00000000       0.016
   0.00000000  0.00000000  0.20000000       0.016
   0.40000000  0.00000000  0.00000000       0.016
   0.00000000  0.40000000  0.00000000       0.016
   0.00000000  0.00000000  0.40000000       0.016
   0.20000000  0.20000000  0.00000000       0.016
   0.00000000  0.20000000  0.20000000       0.016
   0.20000000  0.00000000  0.20000000       0.016
  -0.20000000  0.20000000  0.00000000       0.016
  -0.20000000  0.00000000  0.20000000       0.016
   0.00000000 -0.20000000  0.20000000       0.016
   0.40000000  0.20000000  0.00000000       0.016
   0.00000000  0.40000000  0.20000000       0.016
   0.20000000  0.00000000  0.40000000       0.016
  -0.20000000  0.40000000  0.00000000       0.016
  -0.40000000  0.00000000  0.20000000       0.016
   0.00000000  0.20000000  0.40000000       0.016
   0.00000000 -0.40000000  0.20000000       0.016
  -0.20000000  0.00000000  0.40000000       0.016
   0.40000000  0.00000000  0.20000000       0.016
   0.00000000 -0.20000000  0.40000000       0.016
   0.40000000 -0.20000000  0.00000000       0.016
   0.20000000  0.40000000  0.00000000       0.016
   0.40000000  0.40000000  0.00000000       0.016
   0.00000000  0.40000000  0.40000000       0.016
   0.40000000  0.00000000  0.40000000       0.016
  -0.40000000  0.40000000  0.00000000       0.016
  -0.40000000  0.00000000  0.40000000       0.016
   0.00000000 -0.40000000  0.40000000       0.016
   0.20000000  0.20000000  0.20000000       0.016
  -0.20000000  0.20000000  0.20000000       0.016
  -0.20000000 -0.20000000  0.20000000       0.016
   0.20000000 -0.20000000  0.20000000       0.016
   0.40000000  0.20000000  0.20000000       0.016
   0.20000000  0.40000000  0.20000000       0.016
   0.20000000  0.20000000  0.40000000       0.016
  -0.20000000  0.40000000  0.20000000       0.016
  -0.40000000  0.20000000  0.20000000       0.016
  -0.20000000  0.20000000  0.40000000       0.016
  -0.40000000 -0.20000000  0.20000000       0.016
  -0.20000000 -0.40000000  0.20000000       0.016
  -0.20000000 -0.20000000  0.40000000       0.016
   0.20000000 -0.40000000  0.20000000       0.016
   0.40000000 -0.20000000  0.20000000       0.016
   0.20000000 -0.20000000  0.40000000       0.016
   0.40000000  0.40000000  0.20000000       0.016
   0.20000000  0.40000000  0.40000000       0.016
   0.40000000  0.20000000  0.40000000       0.016
  -0.40000000  0.40000000  0.20000000       0.016
  -0.40000000  0.20000000  0.40000000       0.016
  -0.20000000  0.40000000  0.40000000       0.016
  -0.40000000 -0.40000000  0.20000000       0.016
  -0.20000000 -0.40000000  0.40000000       0.016
  -0.40000000 -0.20000000  0.40000000       0.016
   0.40000000 -0.40000000  0.20000000       0.016
   0.40000000 -0.20000000  0.40000000       0.016
   0.20000000 -0.40000000  0.40000000       0.016
   0.40000000  0.40000000  0.40000000       0.016
  -0.40000000  0.40000000  0.40000000       0.016
  -0.40000000 -0.40000000  0.40000000       0.016
   0.40000000 -0.40000000  0.40000000       0.016
 
 position of ions in fractional coordinates (direct lattice) 
   0.25000000  0.75000000  0.25000000
   0.00000000  0.00000000  0.00000000
   0.75000000  0.25000000  0.25000000
   0.75000000  0.25000000  0.75000000
   0.50000000  0.00000000  0.50000000
   0.75000000  0.75000000  0.75000000
   0.50000000  0.00000000  0.00000000
   0.00000000  0.50000000  0.50000000
   0.75000000  0.75000000  0.25000000
   0.00000000  0.00000000  0.50000000
   0.50000000  0.50000000  0.50000000
   0.25000000  0.75000000  0.75000000
   0.25000000  0.25000000  0.25000000
   0.50000000  0.50000000  0.00000000
   0.00000000  0.50000000  0.00000000
   0.25000000  0.25000000  0.75000000
 
 position of ions in cartesian coordinates  (Angst):
   1.64500000  4.93500000  1.64500000
   0.00000000  0.00000000  0.00000000
   4.93500000  1.64500000  1.64500000
   4.93500000  1.64500000  4.93500000
   3.29000000  0.00000000  3.29000000
   4.93500000  4.93500000  4.93500000
   3.29000000  0.00000000  0.00000000
   0.00000000  3.29000000  3.29000000
   4.93500000  4.93500000  1.64500000
   0.00000000  0.00000000  3.29000000
   3.29000000  3.29000000  3.29000000
   1.64500000  4.93500000  4.93500000
   1.64500000  1.64500000  1.64500000
   3.29000000  3.29000000  0.00000000
   0.00000000  3.29000000  0.00000000
   1.64500000  1.64500000  4.93500000
 


--------------------------------------------------------------------------------------------------------


 k-point   1 :   0.0000 0.0000 0.0000  plane waves:    2517
 k-point   2 :   0.2000 0.0000 0.0000  plane waves:    2545
 k-point   3 :   0.0000 0.2000 0.0000  plane waves:    2545
 k-point   4 :   0.0000 0.0000 0.2000  plane waves:    2545
 k-point   5 :   0.4000 0.0000 0.0000  plane waves:    2569
 k-point   6 :   0.0000 0.4000 0.0000  plane waves:    2569
 k-point   7 :   0.0000 0.0000 0.4000  plane waves:    2569
 k-point   8 :   0.2000 0.2000 0.0000  plane waves:    2562
 k-point   9 :   0.0000 0.2000 0.2000  plane waves:    2562
 k-point  10 :   0.2000 0.0000 0.2000  plane waves:    2562
 k-point  11 :  -0.2000 0.2000 0.0000  plane waves:    2562
 k-point  12 :  -0.2000 0.0000 0.2000  plane waves:    2562
 k-point  13 :   0.0000-0.2000 0.2000  plane waves:    2562
 k-point  14 :   0.4000 0.2000 0.0000  plane waves:    2566
 k-point  15 :   0.0000 0.4000 0.2000  plane waves:    2566
 k-point  16 :   0.2000 0.0000 0.4000  plane waves:    2566
 k-point  17 :  -0.2000 0.4000 0.0000  plane waves:    2566
 k-point  18 :  -0.4000 0.0000 0.2000  plane waves:    2566
 k-point  19 :   0.0000 0.2000 0.4000  plane waves:    2566
 k-point  20 :   0.0000-0.4000 0.2000  plane waves:    2566
 k-point  21 :  -0.2000 0.0000 0.4000  plane waves:    2566
 k-point  22 :   0.4000 0.0000 0.2000  plane waves:    2566
 k-point  23 :   0.0000-0.2000 0.4000  plane waves:    2566
 k-point  24 :   0.4000-0.2000 0.0000  plane waves:    2566
 k-point  25 :   0.2000 0.4000 0.0000  plane waves:    2566
 k-point  26 :   0.4000 0.4000 0.0000  plane waves:    2570
 k-point  27 :   0.0000 0.4000 0.4000  plane waves:    2570
 k-point  28 :   0.4000 0.0000 0.4000  plane waves:    2570
 k-point  29 :  -0.4000 0.4000 0.0000  plane waves:    2570
 k-point  30 :  -0.4000 0.0000 0.4000  plane waves:    2570
 k-point  31 :   0.0000-0.4000 0.4000  plane waves:    2570
 k-point  32 :   0.2000 0.2000 0.2000  plane waves:    2572
 k-point  33 :  -0.2000 0.2000 0.2000  plane waves:    2572
 k-point  34 :  -0.2000-0.2000 0.2000  plane waves:    2572
 k-point  35 :   0.2000-0.2000 0.2000  plane waves:    2572
 k-point  36 :   0.4000 0.2000 0.2000  plane waves:    2546
 k-point  37 :   0.2000 0.4000 0.2000  plane waves:    2546
 k-point  38 :   0.2000 0.2000 0.4000  plane waves:    2546
 k-point  39 :  -0.2000 0.4000 0.2000  plane waves:    2546
 k-point  40 :  -0.4000 0.2000 0.2000  plane waves:    2546
 k-point  41 :  -0.2000 0.2000 0.4000  plane waves:    2546
 k-point  42 :  -0.4000-0.2000 0.2000  plane waves:    2546
 k-point  43 :  -0.2000-0.4000 0.2000  plane waves:    2546
 k-point  44 :  -0.2000-0.2000 0.4000  plane waves:    2546
 k-point  45 :   0.2000-0.4000 0.2000  plane waves:    2546
 k-point  46 :   0.4000-0.2000 0.2000  plane waves:    2546
 k-point  47 :   0.2000-0.2000 0.4000  plane waves:    2546
 k-point  48 :   0.4000 0.4000 0.2000  plane waves:    2549
 k-point  49 :   0.2000 0.4000 0.4000  plane waves:    2549
 k-point  50 :   0.4000 0.2000 0.4000  plane waves:    2549
 k-point  51 :  -0.4000 0.4000 0.2000  plane waves:    2549
 k-point  52 :  -0.4000 0.2000 0.4000  plane waves:    2549
 k-point  53 :  -0.2000 0.4000 0.4000  plane waves:    2549
 k-point  54 :  -0.4000-0.4000 0.2000  plane waves:    2549
 k-point  55 :  -0.2000-0.4000 0.4000  plane waves:    2549
 k-point  56 :  -0.4000-0.2000 0.4000  plane waves:    2549
 k-point  57 :   0.4000-0.4000 0.2000  plane waves:    2549
 k-point  58 :   0.4000-0.2000 0.4000  plane waves:    2549
 k-point  59 :   0.2000-0.4000 0.4000  plane waves:    2549
 k-point  60 :   0.4000 0.4000 0.4000  plane waves:    2533
 k-point  61 :  -0.4000 0.4000 0.4000  plane waves:    2533
 k-point  62 :  -0.4000-0.4000 0.4000  plane waves:    2533
 k-point  63 :   0.4000-0.4000 0.4000  plane waves:    2533

 maximum and minimum number of plane-waves per node :       235      194

 maximum number of plane-waves:      2572
 maximum index in each direction: 
   IXMAX=    8   IYMAX=    8   IZMAX=    8
   IXMIN=   -8   IYMIN=   -8   IZMIN=   -8


 parallel 3D FFT for wavefunctions:
    minimum data exchange during FFTs selected (reduces bandwidth)
 parallel 3D FFT for charge:
    minimum data exchange during FFTs selected (reduces bandwidth)


 total amount of memory used by VASP MPI-rank0    48253. kBytes
=======================================================================

   base      :      30000. kBytes
   nonl-proj :       8332. kBytes
   fftplans  :        456. kBytes
   grid      :        919. kBytes
   one-center:         31. kBytes
   wavefun   :       8515. kBytes
 
     INWAV:  cpu time      0.0000: real time      0.0130
 Broyden mixing: mesh for mixing (old mesh)
   NGX = 17   NGY = 17   NGZ = 17
  (NGX  = 72   NGY  = 72   NGZ  = 72)
  gives a total of   4913 points

 initial charge density was supplied:
 charge density of overlapping atoms calculated
 number of electron     209.0000000 magnetization 
 keeping initial charge density in first step


--------------------------------------------------------------------------------------------------------


 Maximum index for augmentation-charges          517 (set IRDMAX)


--------------------------------------------------------------------------------------------------------


 First call to EWALD:  gamma=   0.269
 Maximum number of real-space cells 3x 3x 3
 Maximum number of reciprocal cells 3x 3x 3

    FEWALD:  cpu time      0.0013: real time      0.0013


--------------------------------------- Iteration      1(   1)  ---------------------------------------


    POTLOK:  cpu time      0.0062: real time      0.0110
    SETDIJ:  cpu time      0.0024: real time      0.0025
     EDDAV:  cpu time      3.1196: real time      3.1346
       DOS:  cpu time      0.0046: real time      0.0046
    --------------------------------------------
      LOOP:  cpu time      3.1329: real time      3.1527

 eigenvalue-minimisations  : 16368
 total energy-change (2. order) : 0.1986966E+04  (-0.8032362E+04)
 number of electron     209.0000000 magnetization 
 augmentation part      209.0000000 magnetization 

 Free energy of the ion-electron system (eV)
  ---------------------------------------------------
  alpha Z        PSCENC =      1784.07396419
  Ewald energy   TEWEN  =    -21789.30319575
  -Hartree energ DENC   =     -4049.79920679
  -exchange      EXHF   =         0.00000000
  -V(xc)+E(xc)   XCENC  =       831.53721095
  PAW double counting   =     20178.57979084   -19865.13658842
  entropy T*S    EENTRO =        -0.00101911
  eigenvalues    EBANDS =      -626.26975232
  atomic energy  EATOM  =     25523.28521920
  Solvation  Ediel_sol  =         0.00000000
  ---------------------------------------------------
  free energy    TOTEN  =      1986.96642277 eV

  energy without entropy =     1986.96744189  energy(sigma->0) =     1986.96693233


--------------------------------------------------------------------------------------------------------




--------------------------------------- Iteration      1(   2)  ---------------------------------------


     EDDAV:  cpu time      3.1532: real time      3.1664
       DOS:  cpu time      0.0046: real time      0.0046
    --------------------------------------------
      LOOP:  cpu time      3.1578: real time      3.1711

 eigenvalue-minimisations  : 16584
 total energy-change (2. order) :-0.1989701E+04  (-0.1926104E+04)
 number of electron     209.0000000 magnetization 
 augmentation part      209.0000000 magnetization 

 Free energy of the ion-electron system (eV)
  ---------------------------------------------------
  alpha Z        PSCENC =      1784.07396419
  Ewald energy   TEWEN  =    -21789.30319575
  -Hartree energ DENC   =     -4049.79920679
  -exchange      EXHF   =         0.00000000
  -V(xc)+E(xc)   XCENC  =       831.53721095
  PAW double counting   =     20178.57979084   -19865.13658842
  entropy T*S    EENTRO =        -0.00106026
  eigenvalues    EBANDS =     -2615.97081201
  atomic energy  EATOM  =     25523.28521920
  Solvation  Ediel_sol  =         0.00000000
  ---------------------------------------------------
  free energy    TOTEN  =        -2.73467806 eV

  energy without entropy =       -2.73361780  energy(sigma->0) =       -2.73414793


--------------------------------------------------------------------------------------------------------




--------------------------------------- Iteration      1(   3)  ---------------------------------------


     EDDAV:  cpu time      4.4253: real time      4.4440
       DOS:  cpu time      0.0046: real time      0.0046
    --------------------------------------------
      LOOP:  cpu time      4.4299: real time      4.4486

 eigenvalue-minimisations  : 25064
 total energy-change (2. order) :-0.1773898E+03  (-0.1669516E+03)
 number of electron     209.0000000 magnetization 
 augmentation part      209.0000000 magnetization 

 Free energy of the ion-electron system (eV)
  ---------------------------------------------------
  alpha Z        PSCENC =      1784.07396419
  Ewald energy   TEWEN  =    -21789.30319575
  -Hartree energ DENC   =     -4049.79920679
  -exchange      EXHF   =         0.00000000
  -V(xc)+E(xc)   XCENC  =       831.53721095
  PAW double counting   =     20178.57979084   -19865.13658842
  entropy T*S    EENTRO =        -0.00274596
  eigenvalues    EBANDS =     -2793.35894694
  atomic energy  EATOM  =     25523.28521920
  Solvation  Ediel_sol  =         0.00000000
  ---------------------------------------------------
  free energy    TOTEN  =      -180.12449869 eV

  energy without entropy =     -180.12175273  energy(sigma->0) =     -180.12312571


--------------------------------------------------------------------------------------------------------




--------------------------------------- Iteration      1(   4)  ---------------------------------------


     EDDAV:  cpu time      4.2289: real time      4.2479
       DOS:  cpu time      0.0048: real time      0.0048
    --------------------------------------------
      LOOP:  cpu time      4.2338: real time      4.2527

 eigenvalue-minimisations  : 24952
 total energy-change (2. order) :-0.1235907E+02  (-0.1203751E+02)
 number of electron     209.0000000 magnetization 
 augmentation part      209.0000000 magnetization 

 Free energy of the ion-electron system (eV)
  ---------------------------------------------------
  alpha Z        PSCENC =      1784.07396419
  Ewald energy   TEWEN  =    -21789.30319575
  -Hartree energ DENC   =     -4049.79920679
  -exchange      EXHF   =         0.00000000
  -V(xc)+E(xc)   XCENC  =       831.53721095
  PAW double counting   =     20178.57979084   -19865.13658842
  entropy T*S    EENTRO =        -0.00240282
  eigenvalues    EBANDS =     -2805.71836037
  atomic energy  EATOM  =     25523.28521920
  Solvation  Ediel_sol  =         0.00000000
  ---------------------------------------------------
  free energy    TOTEN  =      -192.48356899 eV

  energy without entropy =     -192.48116617  energy(sigma->0) =     -192.48236758


--------------------------------------------------------------------------------------------------------




--------------------------------------- Iteration      1(   5)  ---------------------------------------


     EDDAV:  cpu time      4.2547: real time      4.2735
       DOS:  cpu time      0.0046: real time      0.0046
    CHARGE:  cpu time      0.0802: real time      0.0805
    MIXING:  cpu time      0.0004: real time      0.0004
    --------------------------------------------
      LOOP:  cpu time      4.3399: real time      4.3590

 eigenvalue-minimisations  : 24944
 total energy-change (2. order) :-0.7347632E+00  (-0.7300194E+00)
 number of electron     208.9999847 magnetization 
 augmentation part       41.9519689 magnetization 

 Broyden mixing:
  rms(total) = 0.52719E+01    rms(broyden)= 0.52710E+01
  rms(prec ) = 0.58205E+01
  weight for this iteration     100.00

 Free energy of the ion-electron system (eV)
  ---------------------------------------------------
  alpha Z        PSCENC =      1784.07396419
  Ewald energy   TEWEN  =    -21789.30319575
  -Hartree energ DENC   =     -4049.79920679
  -exchange      EXHF   =         0.00000000
  -V(xc)+E(xc)   XCENC  =       831.53721095
  PAW double counting   =     20178.57979084   -19865.13658842
  entropy T*S    EENTRO =        -0.00229035
  eigenvalues    EBANDS =     -2806.45323608
  atomic energy  EATOM  =     25523.28521920
  Solvation  Ediel_sol  =         0.00000000
  ---------------------------------------------------
  free energy    TOTEN  =      -193.21833223 eV

  energy without entropy =     -193.21604188  energy(sigma->0) =     -193.21718705


--------------------------------------------------------------------------------------------------------




--------------------------------------- Iteration      1(   6)  ---------------------------------------


    POTLOK:  cpu time      0.0040: real time      0.0042
    SETDIJ:  cpu time      0.0020: real time      0.0020
     EDDAV:  cpu time      3.5325: real time      3.5483
       DOS:  cpu time      0.0048: real time      0.0048
    CHARGE:  cpu time      0.0843: real time      0.0846
    MIXING:  cpu time      0.0003: real time      0.0003
    --------------------------------------------
      LOOP:  cpu time      3.6280: real time      3.6442

 eigenvalue-minimisations  : 19656
 total energy-change (2. order) : 0.7151507E+01  (-0.2186806E+01)
 number of electron     208.9999841 magnetization 
 augmentation part       43.5484699 magnetization 

 Broyden mixing:
  rms(total) = 0.19772E+01    rms(broyden)= 0.19769E+01
  rms(prec ) = 0.25384E+01
  weight for this iteration     100.00

 eigenvalues of (default mixing * dielectric matrix)
  average eigenvalue GAMMA=   1.4705
  1.4705

 Free energy of the ion-electron system (eV)
  ---------------------------------------------------
  alpha Z        PSCENC =      1784.07396419
  Ewald energy   TEWEN  =    -21789.30319575
  -Hartree energ DENC   =     -3830.42198082
  -exchange      EXHF   =         0.00000000
  -V(xc)+E(xc)   XCENC  =       820.77236979
  PAW double counting   =     24139.30080738   -23850.27153412
  entropy T*S    EENTRO =        -0.00294917
  eigenvalues    EBANDS =     -2983.49952618
  atomic energy  EATOM  =     25523.28521920
  Solvation  Ediel_sol  =         0.00000000
  ---------------------------------------------------
  free energy    TOTEN  =      -186.06682549 eV

  energy without entropy =     -186.06387632  energy(sigma->0) =     -186.06535090


--------------------------------------------------------------------------------------------------------




--------------------------------------- Iteration      1(   7)  ---------------------------------------


    POTLOK:  cpu time      0.0046: real time      0.0047
    SETDIJ:  cpu time      0.0017: real time      0.0017
     EDDAV:  cpu time      4.0385: real time      4.0541
       DOS:  cpu time      0.0043: real time      0.0044
    CHARGE:  cpu time      0.0827: real time      0.0830
    MIXING:  cpu time      0.0002: real time      0.0002
    --------------------------------------------
      LOOP:  cpu time      4.1321: real time      4.1481

 eigenvalue-minimisations  : 23368
 total energy-change (2. order) :-0.1163988E+00  (-0.1853151E+01)
 number of electron     208.9999844 magnetization 
 augmentation part       43.3405051 magnetization 

 Broyden mixing:
  rms(total) = 0.11081E+01    rms(broyden)= 0.11078E+01
  rms(prec ) = 0.24783E+01
  weight for this iteration     100.00

 eigenvalues of (default mixing * dielectric matrix)
  average eigenvalue GAMMA=   1.0717
  1.6248  0.5187

 Free energy of the ion-electron system (eV)
  ---------------------------------------------------
  alpha Z        PSCENC =      1784.07396419
  Ewald energy   TEWEN  =    -21789.30319575
  -Hartree energ DENC   =     -3766.98125729
  -exchange      EXHF   =         0.00000000
  -V(xc)+E(xc)   XCENC  =       816.97833262
  PAW double counting   =     26507.65602267   -26226.39357532
  entropy T*S    EENTRO =        -0.00149262
  eigenvalues    EBANDS =     -3035.49724201
  atomic energy  EATOM  =     25523.28521920
  Solvation  Ediel_sol  =         0.00000000
  ---------------------------------------------------
  free energy    TOTEN  =      -186.18322432 eV

  energy without entropy =     -186.18173170  energy(sigma->0) =     -186.18247801


--------------------------------------------------------------------------------------------------------




--------------------------------------- Iteration      1(   8)  ---------------------------------------


    POTLOK:  cpu time      0.0040: real time      0.0042
    SETDIJ:  cpu time      0.0017: real time      0.0017
     EDDAV:  cpu time      3.8485: real time      3.8641
       DOS:  cpu time      0.0049: real time      0.0049
    CHARGE:  cpu time      0.0839: real time      0.0842
    MIXING:  cpu time      0.0003: real time      0.0003
    --------------------------------------------
      LOOP:  cpu time      3.9433: real time      3.9594

 eigenvalue-minimisations  : 21712
 total energy-change (2. order) : 0.2372478E+01  (-0.8334397E+00)
 number of electron     208.9999843 magnetization 
 augmentation part       43.7950893 magnetization 

 Broyden mixing:
  rms(total) = 0.34811E+00    rms(broyden)= 0.34752E+00
  rms(prec ) = 0.41564E+00
  weight for this iteration     100.00

 eigenvalues of (default mixing * dielectric matrix)
  average eigenvalue GAMMA=   1.1693
  1.7617  1.2885  0.4578

 Free energy of the ion-electron system (eV)
  ---------------------------------------------------
  alpha Z        PSCENC =      1784.07396419
  Ewald energy   TEWEN  =    -21789.30319575
  -Hartree energ DENC   =     -3719.47842401
  -exchange      EXHF   =         0.00000000
  -V(xc)+E(xc)   XCENC  =       814.93082620
  PAW double counting   =     27556.36407619   -27279.96439578
  entropy T*S    EENTRO =        -0.00287335
  eigenvalues    EBANDS =     -3073.71594348
  atomic energy  EATOM  =     25523.28521920
  Solvation  Ediel_sol  =         0.00000000
  ---------------------------------------------------
  free energy    TOTEN  =      -183.81074659 eV

  energy without entropy =     -183.80787324  energy(sigma->0) =     -183.80930992


--------------------------------------------------------------------------------------------------------




--------------------------------------- Iteration      1(   9)  ---------------------------------------


    POTLOK:  cpu time      0.0092: real time      0.0210
    SETDIJ:  cpu time      0.0018: real time      0.0018
     EDDAV:  cpu time      3.9655: real time      3.9834
       DOS:  cpu time      0.0047: real time      0.0047
    CHARGE:  cpu time      0.0842: real time      0.0845
    MIXING:  cpu time      0.0003: real time      0.0003
    --------------------------------------------
      LOOP:  cpu time      4.0657: real time      4.0957

 eigenvalue-minimisations  : 22840
 total energy-change (2. order) :-0.6906210E-01  (-0.9194697E-01)
 number of electron     208.9999844 magnetization 
 augmentation part       43.7611037 magnetization 

 Broyden mixing:
  rms(total) = 0.24108E+00    rms(broyden)= 0.24096E+00
  rms(prec ) = 0.32633E+00
  weight for this iteration     100.00

 eigenvalues of (default mixing * dielectric matrix)
  average eigenvalue GAMMA=   1.3024
  2.3739  1.7218  0.6704  0.4434

 Free energy of the ion-electron system (eV)
  ---------------------------------------------------
  alpha Z        PSCENC =      1784.07396419
  Ewald energy   TEWEN  =    -21789.30319575
  -Hartree energ DENC   =     -3719.00820773
  -exchange      EXHF   =         0.00000000
  -V(xc)+E(xc)   XCENC  =       814.90741078
  PAW double counting   =     27893.66294569   -27615.43764543
  entropy T*S    EENTRO =        -0.00295224
  eigenvalues    EBANDS =     -3076.05734740
  atomic energy  EATOM  =     25523.28521920
  Solvation  Ediel_sol  =         0.00000000
  ---------------------------------------------------
  free energy    TOTEN  =      -183.87980869 eV

  energy without entropy =     -183.87685645  energy(sigma->0) =     -183.87833257


--------------------------------------------------------------------------------------------------------




--------------------------------------- Iteration      1(  10)  ---------------------------------------


    POTLOK:  cpu time      0.0045: real time      0.0047
    SETDIJ:  cpu time      0.0017: real time      0.0017
     EDDAV:  cpu time      3.7196: real time      3.7338
       DOS:  cpu time      0.0048: real time      0.0048
    CHARGE:  cpu time      0.0839: real time      0.0842
    MIXING:  cpu time      0.0004: real time      0.0004
    --------------------------------------------
      LOOP:  cpu time      3.8149: real time      3.8296

 eigenvalue-minimisations  : 21232
 total energy-change (2. order) :-0.2227719E-02  (-0.2187098E-01)
 number of electron     208.9999844 magnetization 
 augmentation part       43.7144804 magnetization 

 Broyden mixing:
  rms(total) = 0.11342E+00    rms(broyden)= 0.11335E+00
  rms(prec ) = 0.24740E+00
  weight for this iteration     100.00

 eigenvalues of (default mixing * dielectric matrix)
  average eigenvalue GAMMA=   1.1963
  2.6121  1.7097  0.7590  0.4504  0.4504

 Free energy of the ion-electron system (eV)
  ---------------------------------------------------
  alpha Z        PSCENC =      1784.07396419
  Ewald energy   TEWEN  =    -21789.30319575
  -Hartree energ DENC   =     -3723.20611781
  -exchange      EXHF   =         0.00000000
  -V(xc)+E(xc)   XCENC  =       815.08487972
  PAW double counting   =     28062.65811777   -27781.76128071
  entropy T*S    EENTRO =        -0.00295060
  eigenvalues    EBANDS =     -3074.71067243
  atomic energy  EATOM  =     25523.28521920
  Solvation  Ediel_sol  =         0.00000000
  ---------------------------------------------------
  free energy    TOTEN  =      -183.88203641 eV

  energy without entropy =     -183.87908581  energy(sigma->0) =     -183.88056111


--------------------------------------------------------------------------------------------------------




--------------------------------------- Iteration      1(  11)  ---------------------------------------


    POTLOK:  cpu time      0.0046: real time      0.0047
    SETDIJ:  cpu time      0.0017: real time      0.0017
     EDDAV:  cpu time      3.6582: real time      3.6745
       DOS:  cpu time      0.0045: real time      0.0045
    CHARGE:  cpu time      0.0844: real time      0.0847
    MIXING:  cpu time      0.0003: real time      0.0003
    --------------------------------------------
      LOOP:  cpu time      3.7537: real time      3.7705

 eigenvalue-minimisations  : 20760
 total energy-change (2. order) : 0.1293685E-01  (-0.8589555E-02)
 number of electron     208.9999845 magnetization 
 augmentation part       43.6884128 magnetization 

 Broyden mixing:
  rms(total) = 0.37076E-01    rms(broyden)= 0.37014E-01
  rms(prec ) = 0.94295E-01
  weight for this iteration     100.00

 eigenvalues of (default mixing * dielectric matrix)
  average eigenvalue GAMMA=   1.1029
  2.5334  1.7086  0.8091  0.7619  0.4519  0.3527

 Free energy of the ion-electron system (eV)
  ---------------------------------------------------
  alpha Z        PSCENC =      1784.07396419
  Ewald energy   TEWEN  =    -21789.30319575
  -Hartree energ DENC   =     -3725.40586804
  -exchange      EXHF   =         0.00000000
  -V(xc)+E(xc)   XCENC  =       815.18942745
  PAW double counting   =     28122.09409068   -27839.66888575
  entropy T*S    EENTRO =        -0.00296726
  eigenvalues    EBANDS =     -3074.13088429
  atomic energy  EATOM  =     25523.28521920
  Solvation  Ediel_sol  =         0.00000000
  ---------------------------------------------------
  free energy    TOTEN  =      -183.86909956 eV

  energy without entropy =     -183.86613231  energy(sigma->0) =     -183.86761594


--------------------------------------------------------------------------------------------------------




--------------------------------------- Iteration      1(  12)  ---------------------------------------


    POTLOK:  cpu time      0.0045: real time      0.0046
    SETDIJ:  cpu time      0.0018: real time      0.0018
     EDDAV:  cpu time      3.7326: real time      3.7470
       DOS:  cpu time      0.0044: real time      0.0044
    CHARGE:  cpu time      0.0812: real time      0.0814
    MIXING:  cpu time      0.0003: real time      0.0003
    --------------------------------------------
      LOOP:  cpu time      3.8247: real time      3.8395

 eigenvalue-minimisations  : 21208
[...]
     33     -25.0234      2.00000
     34     -25.0150      2.00000
     35     -24.4205      2.00000
     36     -24.3377      2.00000
     37     -24.2471      2.00000
     38     -24.2204      2.00000
     39     -24.2026      2.00000
     40     -24.1727      2.00000
     41     -24.1333      2.00000
     42     -24.0083      2.00000
     43     -23.9379      2.00000
     44     -21.2640      2.00000
     45     -21.1843      2.00000
     46     -21.1499      2.00000
     47     -21.1151      2.00000
     48     -21.0265      2.00000
     49     -20.9462      2.00000
     50     -20.8978      2.00000
     51     -20.8824      2.00000
     52     -20.8686      2.00000
     53     -20.8664      2.00000
     54     -20.8526      2.00000
     55     -20.8284      2.00000
     56     -20.7324      2.00000
     57     -20.6678      2.00000
     58     -20.5896      2.00000
     59     -20.5632      2.00000
     60     -20.5427      2.00000
     61     -20.4709      2.00000
     62       4.1653      2.00000
     63       4.7008      2.00000
     64       4.8042      2.00000
     65       5.2758      2.00000
     66       5.5656      2.00000
     67       5.8186      2.00000
     68       5.9960      2.00000
     69       6.5495      2.00000
     70       6.7721      2.00000
     71       6.8089      2.00000
     72       6.8640      2.00000
     73       6.9165      2.00000
     74       7.0048      2.00000
     75       7.0623      2.00000
     76       7.1504      2.00000
     77       7.1679      2.00000
     78       7.1917      2.00000
     79       7.2413      2.00000
     80       7.2812      2.00000
     81       7.3318      2.00000
     82       7.5965      2.00000
     83       7.6124      2.00000
     84       7.6962      2.00000
     85       7.7553      2.00000
     86       7.7917      2.00000
     87       7.8468      2.00000
     88       7.8881      2.00000
     89       7.9188      2.00000
     90       7.9384      2.00000
     91       7.9852      2.00000
     92       8.0091      2.00000
     93       8.0614      2.00000
     94       8.0895      2.00000
     95       8.1255      2.00000
     96       8.1382      2.00000
     97       8.1732      2.00000
     98       8.1994      2.00000
     99       8.2276      2.00000
    100       8.2486      2.00000
    101       8.2593      2.00000
    102       8.3036      2.00000
    103       8.3713      2.00000
    104       8.4181      2.00000
    105       8.4517      2.00000
    106       8.5087      2.00000
    107       8.5520      2.00000
    108       8.5950      2.00000
    109       8.9339      2.00000
    110      11.7548      0.00000
    111      11.7645      0.00000
    112      11.8534      0.00000
    113      11.8686      0.00000
    114      12.0001      0.00000
    115      12.0378      0.00000
    116      12.0885      0.00000
    117      12.1232      0.00000
    118      12.2239      0.00000
    119      12.3021      0.00000
    120      12.3488      0.00000
    121      12.4014      0.00000
    122      12.5163      0.00000
    123      12.5231      0.00000
    124      12.5532      0.00000
    125      12.6511      0.00000
    126      12.7080      0.00000
    127      12.7725      0.00000
    128      12.8205      0.00000

 k-point    63 :       0.4000   -0.4000    0.4000
  band No.  band energies     occupation 
      1     -64.0269      2.00000
      2     -64.0173      2.00000
      3     -64.0136      2.00000
      4     -63.9704      2.00000
      5     -63.9550      2.00000
      6     -50.9723      2.00000
      7     -50.9162      2.00000
      8     -44.8257      2.00000
      9     -44.8018      2.00000
     10     -44.7831      2.00000
     11     -44.7586      2.00000
     12     -44.6941      2.00000
     13     -44.6732      2.00000
     14     -28.4270      2.00000
     15     -28.3915      2.00000
     16     -28.3511      2.00000
     17     -28.3295      2.00000
     18     -28.3062      2.00000
     19     -28.2734      2.00000
     20     -28.2638      2.00000
     21     -28.2367      2.00000
     22     -28.2251      2.00000
     23     -28.1316      2.00000
     24     -28.0958      2.00000
     25     -28.0643      2.00000
     26     -28.0353      2.00000
     27     -28.0104      2.00000
     28     -27.9928      2.00000
     29     -25.1180      2.00000
     30     -25.0899      2.00000
     31     -25.0852      2.00000
     32     -25.0458      2.00000
     33     -25.0248      2.00000
     34     -25.0170      2.00000
     35     -24.4198      2.00000
     36     -24.3385      2.00000
     37     -24.2468      2.00000
     38     -24.2209      2.00000
     39     -24.2024      2.00000
     40     -24.1729      2.00000
     41     -24.1331      2.00000
     42     -24.0087      2.00000
     43     -23.9368      2.00000
     44     -21.2473      2.00000
     45     -21.1934      2.00000
     46     -21.1527      2.00000
     47     -21.1150      2.00000
     48     -21.0254      2.00000
     49     -20.9493      2.00000
     50     -20.8979      2.00000
     51     -20.8868      2.00000
     52     -20.8722      2.00000
     53     -20.8662      2.00000
     54     -20.8616      2.00000
     55     -20.8273      2.00000
     56     -20.7223      2.00000
     57     -20.6694      2.00000
     58     -20.5901      2.00000
     59     -20.5620      2.00000
     60     -20.5343      2.00000
     61     -20.4755      2.00000
     62       4.1412      2.00000
     63       4.6887      2.00000
     64       4.9424      2.00000
     65       5.1809      2.00000
     66       5.5814      2.00000
     67       5.7020      2.00000
     68       6.0823      2.00000
     69       6.5595      2.00000
     70       6.8219      2.00000
     71       6.8311      2.00000
     72       6.8597      2.00000
     73       6.9025      2.00000
     74       6.9490      2.00000
     75       7.0545      2.00000
     76       7.1218      2.00000
     77       7.1637      2.00000
     78       7.2053      2.00000
     79       7.2577      2.00000
     80       7.3016      2.00000
     81       7.3251      2.00000
     82       7.5885      2.00000
     83       7.6619      2.00000
     84       7.7032      2.00000
     85       7.7748      2.00000
     86       7.7912      2.00000
     87       7.8297      2.00000
     88       7.8550      2.00000
     89       7.9166      2.00000
     90       7.9394      2.00000
     91       7.9686      2.00000
     92       7.9984      2.00000
     93       8.0599      2.00000
     94       8.0951      2.00000
     95       8.1207      2.00000
     96       8.1410      2.00000
     97       8.1648      2.00000
     98       8.1841      2.00000
     99       8.2273      2.00000
    100       8.2554      2.00000
    101       8.2673      2.00000
    102       8.3387      2.00000
    103       8.3677      2.00000
    104       8.4045      2.00000
    105       8.4443      2.00000
    106       8.4564      2.00000
    107       8.5671      2.00000
    108       8.5846      2.00000
    109       8.9881      2.00000
    110      11.7194      0.00000
    111      11.7770      0.00000
    112      11.8696      0.00000
    113      11.8786      0.00000
    114      11.9363      0.00000
    115      12.0422      0.00000
    116      12.0710      0.00000
    117      12.1323      0.00000
    118      12.2438      0.00000
    119      12.3168      0.00000
    120      12.3533      0.00000
    121      12.4488      0.00000
    122      12.4817      0.00000
    123      12.5357      0.00000
    124      12.5853      0.00000
    125      12.6520      0.00000
    126      12.7154      0.00000
    127      12.7732      0.00000
    128      12.8301      0.00000


--------------------------------------------------------------------------------------------------------


 soft charge-density along one line, spin component           1
         0         1         2         3         4         5         6         7         8         9
 total charge-density along one line
 
 pseudopotential strength for first ion, spin component:           1
  5.786 -20.321  -0.001  -0.002   0.000   0.003   0.004  -0.000
-20.321   9.234  -0.002  -0.003   0.000   0.000   0.000  -0.000
 -0.001  -0.002  -9.765   0.002  -0.004   6.011  -0.003   0.004
 -0.002  -0.003   0.002  -9.765   0.002  -0.003   6.010  -0.003
  0.000   0.000  -0.004   0.002  -9.760   0.004  -0.003   6.006
  0.003   0.000   6.011  -0.003   0.004   7.936   0.002  -0.003
  0.004   0.000  -0.003   6.010  -0.003   0.002   7.936   0.002
 -0.000  -0.000   0.004  -0.003   6.006  -0.003   0.002   7.939
 -0.003  -0.001   0.000  -0.000  -0.001  -0.000   0.000   0.002
  0.002   0.001  -0.002  -0.001  -0.000   0.003   0.002   0.000
 -0.001  -0.000   0.001  -0.002  -0.000  -0.001   0.002   0.000
  0.002   0.001  -0.000   0.000  -0.002   0.000  -0.000   0.003
  0.002   0.001   0.001   0.000   0.000  -0.001   0.000  -0.000
 -0.004  -0.002   0.000  -0.000  -0.002  -0.000   0.000   0.002
  0.002   0.001  -0.002  -0.002  -0.000   0.003   0.002   0.000
 -0.001  -0.000   0.001  -0.002  -0.000  -0.001   0.003   0.000
  0.002   0.001  -0.000   0.000  -0.002   0.000  -0.000   0.003
  0.002   0.001   0.001   0.000   0.000  -0.002   0.000  -0.000
 total augmentation occupancy for first ion, spin component:           1
  1.995  -0.048   0.000   0.000   0.000   0.000   0.000   0.000  -0.009   0.003  -0.001   0.008   0.002   0.008  -0.003   0.001
 -0.048   1.303   0.002   0.002  -0.000   0.001   0.002   0.000  -0.034   0.015  -0.016   0.014   0.029   0.014  -0.011   0.006
  0.000   0.002   1.996  -0.000   0.000  -0.031  -0.000  -0.001   0.000   0.006   0.000   0.000   0.000  -0.000  -0.003   0.000
  0.000   0.002  -0.000   1.996  -0.000  -0.000  -0.031   0.001   0.001   0.009  -0.003   0.000   0.000  -0.000  -0.005   0.002
  0.000  -0.000   0.000  -0.000   1.996  -0.001   0.001  -0.031   0.009   0.000  -0.000   0.006   0.000  -0.006  -0.000   0.000
  0.000   0.001  -0.031  -0.000  -0.001   0.067   0.001   0.001  -0.000  -0.001  -0.003  -0.005  -0.006   0.000   0.002   0.001
  0.000   0.002  -0.000  -0.031   0.001   0.001   0.067  -0.001  -0.006  -0.010   0.008  -0.000  -0.000   0.004   0.007  -0.003
  0.000   0.000  -0.001   0.001  -0.031   0.001  -0.001   0.070  -0.011  -0.005   0.001  -0.002   0.000   0.008   0.004  -0.000
 -0.009  -0.034   0.000   0.001   0.009  -0.000  -0.006  -0.011   3.321  -0.018   0.067   0.065  -0.002  -1.393   0.023  -0.031
  0.003   0.015   0.006   0.009   0.000  -0.001  -0.010  -0.005  -0.018   3.330   0.014  -0.065  -0.021   0.024  -1.392  -0.007
 -0.001  -0.016   0.000  -0.003  -0.000  -0.003   0.008   0.001   0.067   0.014   2.587   0.027  -0.033  -0.029  -0.006  -1.178
  0.008   0.014   0.000   0.000   0.006  -0.005  -0.000  -0.002   0.065  -0.065   0.027   3.326   0.050  -0.034   0.024  -0.013
  0.002   0.029   0.000   0.000   0.000  -0.006  -0.000   0.000  -0.002  -0.021  -0.033   0.050   2.624   0.001   0.010   0.011
  0.008   0.014  -0.000  -0.000  -0.006   0.000   0.004   0.008  -1.393   0.024  -0.029  -0.034   0.001   0.597  -0.016   0.013
 -0.003  -0.011  -0.003  -0.005  -0.000   0.002   0.007   0.004   0.023  -1.392  -0.006   0.024   0.010  -0.016   0.594   0.003
  0.001   0.006   0.000   0.002   0.000   0.001  -0.003  -0.000  -0.031  -0.007  -1.178  -0.013   0.011   0.013   0.003   0.544
 -0.007   0.002  -0.000  -0.000  -0.004   0.004   0.000   0.002  -0.034   0.023  -0.012  -1.395  -0.022   0.017  -0.010   0.006
 -0.002  -0.010  -0.000  -0.000  -0.000   0.002   0.000  -0.000   0.000   0.011   0.011  -0.023  -1.190  -0.000  -0.005  -0.004


------------------------ aborting loop because EDIFF is reached ----------------------------------------


    CHARGE:  cpu time      0.0871: real time      0.0874
    FORLOC:  cpu time      0.0005: real time      0.0005
    FORNL :  cpu time      0.8258: real time      0.8285
    STRESS:  cpu time      1.0066: real time      1.0120
    FORCOR:  cpu time      0.0046: real time      0.0046
    FORHAR:  cpu time      0.0015: real time      0.0015
    MIXING:  cpu time      0.0008: real time      0.0008
    OFIELD:  cpu time      0.0000: real time      0.0000

  FORCE on cell =-STRESS in cart. coord.  units (eV):
  Direction    XX          YY          ZZ          XY          YZ          ZX
  --------------------------------------------------------------------------------------
  Alpha Z  1784.07396  1784.07396  1784.07396
  Ewald   -7263.48223 -7250.59995 -7275.29031     6.32305    -0.00000    -2.10768
  Hartree  1241.67165  1252.85414  1230.16883     6.95296     0.86902    -2.57212
  E(xc)    -959.31033  -959.31941  -959.30166    -0.03348    -0.01431     0.02313
  Local    1606.78577  1584.35798  1631.05840   -13.49311    -0.76743     4.75524
  n-local  -276.16871  -278.26045  -278.70964     0.79951    -0.13059    -1.16669
  augment   574.09004   574.07691   574.13766     0.10815     0.01044     0.03478
  Kinetic  3269.13647  3269.54029  3270.45967    -0.85249     0.11855     1.16104
  Fock        0.00000     0.00000     0.00000     0.00000     0.00000     0.00000
  -------------------------------------------------------------------------------------
  Total     -23.20337   -23.27652   -23.40309    -0.19542     0.08569     0.12769
  in kB    -130.49205  -130.90343  -131.61524    -1.09899     0.48189     0.71810
  external pressure =     -131.00 kB  Pullay stress =        0.00 kB


 VOLUME and BASIS-vectors are now :
 -----------------------------------------------------------------------------
  energy-cutoff  :      250.00
  volume of cell :      284.89
      direct lattice vectors                 reciprocal lattice vectors
     6.580000000  0.000000000  0.000000000     0.151975684  0.000000000  0.000000000
     0.000000000  6.580000000  0.000000000     0.000000000  0.151975684  0.000000000
     0.000000000  0.000000000  6.580000000     0.000000000  0.000000000  0.151975684

  length of vectors
     6.580000000  6.580000000  6.580000000     0.151975684  0.151975684  0.151975684


 FORCES acting on ions
    electron-ion (+dipol)            ewald-force                    non-local-force                 convergence-correction
 -----------------------------------------------------------------------------------------------
   0.828E-02 -.209E+02 -.617E+02   0.852E-13 0.204E+02 0.612E+02   -.775E-02 0.181E+00 0.835E-01   0.617E-05 0.280E-05 -.161E-04
   0.518E+02 0.308E+02 -.308E+02   -.510E+02 -.306E+02 0.306E+02   -.225E+00 -.260E-01 0.669E-02   0.190E-04 0.191E-04 -.268E-04
   -.437E-02 0.209E+02 -.617E+02   0.884E-13 -.204E+02 0.612E+02   0.717E-02 -.152E+00 0.672E-01   -.623E-05 0.916E-05 -.185E-04
   -.955E-02 0.209E+02 0.617E+02   0.104E-12 -.204E+02 -.612E+02   0.815E-02 -.156E+00 -.546E-01   -.476E-05 0.624E-05 0.280E-04
   -.517E+02 0.308E+02 0.308E+02   0.510E+02 -.306E+02 -.306E+02   0.185E+00 -.108E-01 -.304E-01   -.227E-04 0.107E-04 0.190E-04
   -.132E-01 -.209E+02 0.617E+02   0.154E-12 0.204E+02 -.612E+02   0.116E-01 0.159E+00 -.605E-01   -.520E-05 -.290E-05 0.261E-04
   -.555E+02 0.331E+02 -.331E+02   0.549E+02 -.329E+02 0.329E+02   0.965E-01 -.141E-01 -.784E-02   0.752E-05 0.130E-04 -.206E-04
   0.554E+02 -.331E+02 0.331E+02   -.549E+02 0.329E+02 -.329E+02   -.607E-01 -.178E-01 0.145E-02   -.155E-04 -.137E-04 0.150E-04
   0.428E-02 -.177E+02 -.522E+02   -.264E-13 0.173E+02 0.518E+02   -.375E-02 0.151E-01 -.295E-01   -.549E-05 -.268E-05 -.201E-04
   0.439E+02 0.261E+02 0.261E+02   -.431E+02 -.259E+02 -.259E+02   -.563E-01 -.512E-02 0.196E-01   0.213E-04 0.150E-04 0.180E-04
   -.440E+02 -.261E+02 0.261E+02   0.431E+02 0.259E+02 -.259E+02   0.136E+00 -.179E-01 -.650E-02   -.558E-05 -.145E-04 0.153E-04
   0.156E-02 -.223E+02 0.663E+02   -.568E-13 0.220E+02 -.659E+02   0.887E-02 -.376E-01 0.618E-01   0.633E-05 0.328E-05 0.155E-04
   -.177E-02 0.223E+02 -.663E+02   0.286E-13 -.220E+02 0.659E+02   -.328E-02 0.747E-01 -.322E-01   0.707E-05 -.528E-05 -.206E-04
   -.555E+02 -.332E+02 -.331E+02   0.549E+02 0.329E+02 0.329E+02   -.321E-01 -.113E-01 -.352E-01   -.562E-05 -.219E-04 -.269E-04
   0.555E+02 -.331E+02 -.332E+02   -.549E+02 0.329E+02 0.329E+02   -.772E-02 -.239E-01 0.308E-02   0.228E-05 -.200E-04 -.209E-04
   0.476E-02 0.224E+02 0.663E+02   0.243E-15 -.220E+02 -.659E+02   0.119E-02 0.676E-02 -.523E-02   0.659E-05 -.179E-05 0.242E-04
 -----------------------------------------------------------------------------------------------
   -.577E-01 0.363E-01 0.186E-01   0.358E-13 -.711E-13 0.426E-13   0.577E-01 -.363E-01 -.186E-01   0.517E-05 -.343E-05 -.926E-05
 
 
 POSITION                                       TOTAL-FORCE (eV/Angst)
 -----------------------------------------------------------------------------------
      1.64500      4.93500      1.64500         0.000534     -0.316509     -0.436277
      0.00000      0.00000      0.00000         0.601010      0.223054     -0.234619
      4.93500      1.64500      1.64500         0.002798      0.339792     -0.425720
      4.93500      1.64500      4.93500        -0.001401      0.368387      0.467168
      3.29000      0.00000      3.29000        -0.557241      0.211240      0.219577
      4.93500      4.93500      4.93500        -0.001654     -0.338271      0.432018
      3.29000      0.00000      0.00000        -0.515638      0.148071     -0.186213
      0.00000      3.29000      3.29000         0.472234     -0.172539      0.139168
      4.93500      4.93500      1.64500         0.000528     -0.456939     -0.498577
      0.00000      0.00000      3.29000         0.715340      0.249189      0.242696
      3.29000      3.29000      3.29000        -0.728817     -0.272044      0.245923
      1.64500      4.93500      4.93500         0.010431     -0.400050      0.452196
      1.64500      1.64500      1.64500        -0.005039      0.448735     -0.411632
      3.29000      3.29000      0.00000        -0.624706     -0.221155     -0.213729
      0.00000      3.29000      0.00000         0.625665     -0.217786     -0.220310
      1.64500      1.64500      4.93500         0.005956      0.406824      0.428332
 -----------------------------------------------------------------------------------
    total drift:                               -0.000001     -0.000004     -0.000002


--------------------------------------------------------------------------------------------------------



  FREE ENERGIE OF THE ION-ELECTRON SYSTEM (eV)
  ---------------------------------------------------
  free  energy   TOTEN  =      -183.86581524 eV

  energy  without entropy=     -183.86288850  energy(sigma->0) =     -183.86435187
 


--------------------------------------------------------------------------------------------------------


    POTLOK:  cpu time      0.0062: real time      0.0147


--------------------------------------------------------------------------------------------------------


     LOOP+:  cpu time     91.3823: real time     92.3496
    4ORBIT:  cpu time      0.0000: real time      0.0000

 total amount of memory used by VASP MPI-rank0    48253. kBytes
=======================================================================

   base      :      30000. kBytes
   nonl-proj :       8332. kBytes
   fftplans  :        456. kBytes
   grid      :        919. kBytes
   one-center:         31. kBytes
   wavefun   :       8515. kBytes
 
  
  
 General timing and accounting informations for this job:
 ========================================================
  
                  Total CPU time used (sec):       94.839
                            User time (sec):       93.604
                          System time (sec):        1.235
                         Elapsed time (sec):       96.961
  
                   Maximum memory used (kb):       89872.
                   Average memory used (kb):          N/A
  
                          Minor page faults:         8286
                          Major page faults:            0
                 Voluntary context switches:          338
