 vasp.6.3.1 04May22 (build Jul 26 2022 04:02:40) complex                        
  
 executed on             LinuxIFC date 2023.11.30  01:58:52
 running on   48 total cores
 distrk:  each k-point on   48 cores,    1 groups
 distr:  one band on NCORE=  12 cores,    4 groups


--------------------------------------------------------------------------------------------------------


 INCAR:
   ISTART = 0
   NWRITE = 2
   PREC = Accurate
   ENCUT = 250
   GGA = PE
   NSW = 0
   ISIF = 2
   ISYM = 2
   NBLOCK = 1
   KBLOCK = 1
   IBRION = -1
   NELM = 80
   EDIFF = 1E-08
   EDIFFG = -0.01
   ALGO = Normal
   LDIAG = .TRUE.
   LREAL = .FALSE.
   ISMEAR = 0
   SIGMA = 0.02
   ICHARG = 2
   LPLANE = .TRUE.
   NPAR = 4
   LSCALU = .FALSE.
   NSIM = 4
   LWAVE = .FALSE.
   LCHARG = .FALSE.
   ICORELEVEL = 1

 POTCAR:    PAW_PBE Nb_sv 25May2007               
 POTCAR:    PAW_PBE Mo_sv 02Feb2006               
 POTCAR:    PAW_PBE Ta_pv 07Sep2000               
 POTCAR:    PAW_PBE W_sv 04Sep2015                
 POTCAR:    PAW_PBE Nb_sv 25May2007               
   SHA256 =  0e8fc07c9fcd1164cf2ade22d0399fd28f85e91cd773dfa6cf24839a48c95e24 Nb_sv/POTCAR          
   COPYR  = (c) Copyright 25May2007 Georg Kresse                                                    
   COPYR  = This file is part of the software VASP. Any use, copying, and all other rights are regul
   COPYR  = If you do not have a valid VASP license, you may not use, copy or distribute this file. 
   VRHFIN =Nb: 4p5s4d                                                                               
   LEXCH  = PE                                                                                      
   EATOM  =  1555.1913 eV,  114.3033 Ry                                                             
                                                                                                    
   TITEL  = PAW_PBE Nb_sv 25May2007                                                                 
   LULTRA =        F    use ultrasoft PP ?                                                          
   IUNSCR =        1    unscreen: 0-lin 1-nonlin 2-no                                               
   RPACOR =    1.800    partial core radius                                                         
   POMASS =   92.910; ZVAL   =   13.000    mass and valenz                                          
   RCORE  =    2.400    outmost cutoff radius                                                       
   RWIGS  =    2.400; RWIGS  =    1.270    wigner-seitz radius (au A)                               
   ENMAX  =  293.235; ENMIN  =  219.927 eV                                                          
   ICORE  =        3    local potential                                                             
   LCOR   =        T    correct aug charges                                                         
   LPAW   =        T    paw PP                                                                      
   EAUG   =  455.659                                                                                
   DEXC   =    0.000                                                                                
   RMAX   =    2.456    core radius for proj-oper                                                   
   RAUG   =    1.300    factor for augmentation sphere                                              
   RDEP   =    2.451    radius for radial grids                                                     
   RDEPT  =    1.956    core radius for aug-charge                                                  
                                                                                                    
   Atomic configuration                                                                             
   11 entries                                                                                       
     n  l   j            E        occ.                                                              
     1  0  0.50    -18805.2457   2.0000                                                             
     2  0  0.50     -2630.2869   2.0000                                                             
     2  1  1.50     -2348.4046   6.0000                                                             
     3  0  0.50      -438.8757   2.0000                                                             
     3  1  1.50      -346.7588   6.0000                                                             
     3  2  2.50      -196.2560  10.0000                                                             
     4  0  0.50       -58.3859   2.0000                                                             
     5  0  0.50        -3.9816   1.0000                                                             
     4  1  1.50       -34.5141   6.0000                                                             
     4  2  2.50        -3.0408   4.0000                                                             
     4  3  2.50        -1.3606   0.0000                                                             
   Description                                                                                      
     l       E           TYP  RCUT    TYP  RCUT                                                     
     0    -58.3859094     23  2.200                                                                 
     0     -3.9816262     23  2.200                                                                 
     1    -34.5140738     23  2.200                                                                 
     1     13.6058260     23  2.200                                                                 
     2     -3.0408010     23  2.200                                                                 
     2     -0.1283038     23  2.200                                                                 
     3     -1.3605826     23  2.400                                                                 
  local pseudopotential read in
  partial core-charges read in
  partial kinetic energy density read in
  atomic valenz-charges read in
  non local Contribution for L=           0  read in
    real space projection operators read in
  non local Contribution for L=           0  read in
    real space projection operators read in
  non local Contribution for L=           1  read in
    real space projection operators read in
  non local Contribution for L=           1  read in
    real space projection operators read in
  non local Contribution for L=           2  read in
    real space projection operators read in
  non local Contribution for L=           2  read in
    real space projection operators read in
    PAW grid and wavefunctions read in
 
   number of l-projection  operators is LMAX  =           6
   number of lm-projection operators is LMMAX =          18
 
 POTCAR:    PAW_PBE Mo_sv 02Feb2006               
   SHA256 =  2731df97e41766cc617548c5a8267718fdef1f509ac6bafa01e745abea2bdfaa Mo_sv/POTCAR          
   COPYR  = (c) Copyright 02Feb2006 Georg Kresse                                                    
   COPYR  = This file is part of the software VASP. Any use, copying, and all other rights are regul
   COPYR  = If you do not have a valid VASP license, you may not use, copy or distribute this file. 
   VRHFIN =Mo: 4p5s4d                                                                               
   LEXCH  = PE                                                                                      
   EATOM  =  1862.2866 eV,  136.8742 Ry                                                             
                                                                                                    
   TITEL  = PAW_PBE Mo_sv 02Feb2006                                                                 
   LULTRA =        F    use ultrasoft PP ?                                                          
   IUNSCR =        1    unscreen: 0-lin 1-nonlin 2-no                                               
   RPACOR =    2.200    partial core radius                                                         
   POMASS =   95.940; ZVAL   =   14.000    mass and valenz                                          
   RCORE  =    2.500    outmost cutoff radius                                                       
   RWIGS  =    2.750; RWIGS  =    1.455    wigner-seitz radius (au A)                               
   ENMAX  =  242.676; ENMIN  =  182.007 eV                                                          
   ICORE  =        3    local potential                                                             
   LCOR   =        T    correct aug charges                                                         
   LPAW   =        T    paw PP                                                                      
   EAUG   =  446.014                                                                                
   DEXC   =    0.000                                                                                
   RMAX   =    2.563    core radius for proj-oper                                                   
   RAUG   =    1.300    factor for augmentation sphere                                              
   RDEP   =    2.641    radius for radial grids                                                     
   RDEPT  =    2.031    core radius for aug-charge                                                  
                                                                                                    
   Atomic configuration                                                                             
   11 entries                                                                                       
     n  l   j            E        occ.                                                              
     1  0  0.50    -19819.0341   2.0000                                                             
     2  0  0.50     -2799.0127   2.0000                                                             
     2  1  1.50     -2502.0276   6.0000                                                             
     3  0  0.50      -476.4449   2.0000                                                             
     3  1  1.50      -379.1496   6.0000                                                             
     3  2  2.50      -220.9367  10.0000                                                             
     4  0  0.50       -64.3378   2.0000                                                             
     5  0  0.50        -4.0862   1.0000                                                             
     4  1  1.50       -38.4773   6.0000                                                             
     4  2  2.50        -3.7535   5.0000                                                             
     4  3  2.50        -1.3606   0.0000                                                             
   Description                                                                                      
     l       E           TYP  RCUT    TYP  RCUT                                                     
     0    -64.3377829     23  2.100                                                                 
     0     -4.0861640     23  2.400                                                                 
     1    -38.4772993     23  2.100                                                                 
     1     13.6058260     23  2.100                                                                 
     2     -3.7534941     23  2.400                                                                 
     2     -5.1140767     23  2.400                                                                 
     3     -4.0817478     23  2.500                                                                 
  local pseudopotential read in
  partial core-charges read in
  partial kinetic energy density read in
  atomic valenz-charges read in
  non local Contribution for L=           0  read in
    real space projection operators read in
  non local Contribution for L=           0  read in
    real space projection operators read in
  non local Contribution for L=           1  read in
    real space projection operators read in
  non local Contribution for L=           1  read in
    real space projection operators read in
  non local Contribution for L=           2  read in
    real space projection operators read in
  non local Contribution for L=           2  read in
    real space projection operators read in
    PAW grid and wavefunctions read in
 
   number of l-projection  operators is LMAX  =           6
   number of lm-projection operators is LMMAX =          18
 
 POTCAR:    PAW_PBE Ta_pv 07Sep2000               
   SHA256 =  00d0a14a36c127416459414afb8617d9754996fffa60a2465888e660b20a452f Ta_pv/POTCAR          
   COPYR  = (c) Copyright 07Sep2000 Georg Kresse                                                    
   COPYR  = This file is part of the software VASP. Any use, copying, and all other rights are regul
   COPYR  = If you do not have a valid VASP license, you may not use, copy or distribute this file. 
   VRHFIN =Ta:  5p6s5d                                                                              
   LEXCH  = PE                                                                                      
   EATOM  =  1047.1984 eV,   76.9669 Ry                                                             
                                                                                                    
   TITEL  = PAW_PBE Ta_pv 07Sep2000                                                                 
   LULTRA =        F    use ultrasoft PP ?                                                          
   IUNSCR =        1    unscreen: 0-lin 1-nonlin 2-no                                               
   RPACOR =    2.330    partial core radius                                                         
   POMASS =  180.948; ZVAL   =   11.000    mass and valenz                                          
   RCORE  =    2.500    outmost cutoff radius                                                       
   RWIGS  =    2.840; RWIGS  =    1.503    wigner-seitz radius (au A)                               
   ENMAX  =  223.667; ENMIN  =  167.750 eV                                                          
   RCLOC  =    2.205    cutoff for local pot                                                        
   LCOR   =        T    correct aug charges                                                         
   LPAW   =        T    paw PP                                                                      
   EAUG   =  377.421                                                                                
   DEXC   =    0.000                                                                                
   RMAX   =    2.551    core radius for proj-oper                                                   
   RAUG   =    1.300    factor for augmentation sphere                                              
   RDEP   =    2.526    radius for radial grids                                                     
   RDEPT  =    2.132    core radius for aug-charge                                                  
                                                                                                    
   Atomic configuration                                                                             
   15 entries                                                                                       
     n  l   j            E        occ.                                                              
     1  0  0.50    -67341.2801   2.0000                                                             
     2  0  0.50    -11566.9369   2.0000                                                             
     2  1  1.50    -10134.1175   6.0000                                                             
     3  0  0.50     -2648.5614   2.0000                                                             
     3  1  1.50     -2222.6006   6.0000                                                             
     3  2  2.50     -1726.3114  10.0000                                                             
     4  0  0.50      -538.6957   2.0000                                                             
     4  1  1.50      -399.0125   6.0000                                                             
     4  2  2.50      -220.3955  10.0000                                                             
     4  3  3.50       -23.0371  14.0000                                                             
     5  0  0.50       -71.2900   2.0000                                                             
     5  1  1.50       -37.8224   6.0000                                                             
     5  2  2.50        -2.6455   4.0000                                                             
     6  0  0.50        -4.9623   1.0000                                                             
     5  3  2.50        -1.3606   0.0000                                                             
   Description                                                                                      
     l       E           TYP  RCUT    TYP  RCUT                                                     
     1    -37.8224449     23  2.500                                                                 
     1      1.3605826     23  2.500                                                                 
     2     -2.6454718     23  2.500                                                                 
     2     -0.6258570     23  2.500                                                                 
     0     -4.9622674     23  2.500                                                                 
     0      4.7531427     23  2.500                                                                 
  local pseudopotential read in
  partial core-charges read in
  partial kinetic energy density read in
  atomic valenz-charges read in
  non local Contribution for L=           1  read in
    real space projection operators read in
  non local Contribution for L=           1  read in
    real space projection operators read in
  non local Contribution for L=           2  read in
    real space projection operators read in
  non local Contribution for L=           2  read in
    real space projection operators read in
  non local Contribution for L=           0  read in
    real space projection operators read in
  non local Contribution for L=           0  read in
    real space projection operators read in
    PAW grid and wavefunctions read in
 
   number of l-projection  operators is LMAX  =           6
   number of lm-projection operators is LMMAX =          18
 
 POTCAR:    PAW_PBE W_sv 04Sep2015                
   SHA256 =  931c2d770f65867ef30f3db3421922900fc0890ebac5c3e12f63b6a2064023d7 W_sv/POTCAR           
   COPYR  = (c) Copyright 04Sep2015 Georg Kresse                                                    
   COPYR  = This file is part of the software VASP. Any use, copying, and all other rights are regul
   COPYR  = If you do not have a valid VASP license, you may not use, copy or distribute this file. 
   VRHFIN =W : 5p6s5d                                                                               
   LEXCH  = PE                                                                                      
   EATOM  =  1865.5791 eV,  137.1162 Ry                                                             
                                                                                                    
   TITEL  = PAW_PBE W_sv 04Sep2015                                                                  
   LULTRA =        F    use ultrasoft PP ?                                                          
   IUNSCR =        1    unscreen: 0-lin 1-nonlin 2-no                                               
   RPACOR =    2.330    partial core radius                                                         
   POMASS =  183.850; ZVAL   =   14.000    mass and valenz                                          
   RCORE  =    2.500    outmost cutoff radius                                                       
   RWIGS  =    2.750; RWIGS  =    1.455    wigner-seitz radius (au A)                               
   ENMAX  =  223.057; ENMIN  =  167.293 eV                                                          
   ICORE  =        3    local potential                                                             
   LCOR   =        T    correct aug charges                                                         
   LPAW   =        T    paw PP                                                                      
   EAUG   =  373.438                                                                                
   DEXC   =    0.000                                                                                
   RMAX   =    2.565    core radius for proj-oper                                                   
   RAUG   =    1.300    factor for augmentation sphere                                              
   RDEP   =    2.539    radius for radial grids                                                     
   RDEPT  =    2.126    core radius for aug-charge                                                  
                                                                                                    
   Atomic configuration                                                                             
   15 entries                                                                                       
     n  l   j            E        occ.                                                              
     1  0  0.50    -69465.5834   2.0000                                                             
     2  0  0.50    -11986.2640   2.0000                                                             
     2  1  1.50    -10479.8613   6.0000                                                             
     3  0  0.50     -2759.0756   2.0000                                                             
     3  1  1.50     -2313.1855   6.0000                                                             
     3  2  2.50     -1801.1183  10.0000                                                             
     4  0  0.50      -567.6789   2.0000                                                             
     4  1  1.50      -421.4692   6.0000                                                             
     4  2  2.50      -236.3471  10.0000                                                             
     4  3  3.50       -31.2665  14.0000                                                             
     5  0  0.50       -77.1084   2.0000                                                             
     6  0  0.50        -5.1438   1.0000                                                             
     5  1  1.50       -41.3856   6.0000                                                             
     5  2  2.50        -3.3185   5.0000                                                             
     5  3  2.50        -1.3606   0.0000                                                             
   Description                                                                                      
     l       E           TYP  RCUT    TYP  RCUT                                                     
     0    -77.1084470     23  2.100                                                                 
     0     -5.1437956     23  2.300                                                                 
     1    -41.3855615     23  2.500                                                                 
     1     -2.7211652     23  2.500                                                                 
     2     -3.3185025     23  2.500                                                                 
     2     -1.5965151     23  2.500                                                                 
     3     -1.3605826     23  2.500                                                                 
  local pseudopotential read in
  partial core-charges read in
  partial kinetic energy density read in
  kinetic energy density of atom read in
  atomic valenz-charges read in
  non local Contribution for L=           0  read in
    real space projection operators read in
  non local Contribution for L=           0  read in
    real space projection operators read in
  non local Contribution for L=           1  read in
    real space projection operators read in
  non local Contribution for L=           1  read in
    real space projection operators read in
  non local Contribution for L=           2  read in
    real space projection operators read in
  non local Contribution for L=           2  read in
    real space projection operators read in
    PAW grid and wavefunctions read in
 
   number of l-projection  operators is LMAX  =           6
   number of lm-projection operators is LMMAX =          18
 
  PAW_PBE Nb_sv 25May2007               :
 energy of atom  1       EATOM=-1555.1913
 kinetic energy error for atom=    0.2155 (will be added to EATOM!!)
  PAW_PBE Mo_sv 02Feb2006               :
 energy of atom  2       EATOM=-1862.2866
 kinetic energy error for atom=    0.1102 (will be added to EATOM!!)
  PAW_PBE Ta_pv 07Sep2000               :
 energy of atom  3       EATOM=-1047.1984
 kinetic energy error for atom=    0.0394 (will be added to EATOM!!)
  PAW_PBE W_sv 04Sep2015                :
 energy of atom  4       EATOM=-1865.5791
 kinetic energy error for atom=    0.0589 (will be added to EATOM!!)
 
 
 POSCAR: Nb-Mo-Ta-W alloy
  positions in direct lattice
  No initial velocities read in
 exchange correlation table for  LEXCH =        8
   RHO(1)=    0.500       N(1)  =     2000
   RHO(2)=  100.500       N(2)  =     4000
 


--------------------------------------------------------------------------------------------------------


 ion  position               nearest neighbor table
   1  0.500  0.000  0.500-   2 2.85   3 2.85   4 2.85   6 2.85   7 2.85   9 2.85  14 2.85  16 2.85
                            10 3.29  13 3.29  10 3.29  13 3.29
   2  0.750  0.250  0.250-   1 2.85   5 2.85   8 2.85  10 2.85  11 2.85  12 2.85  13 2.85  15 2.85
                             9 3.29   9 3.29
   3  0.250  0.750  0.750-   1 2.85   5 2.85   8 2.85  10 2.85  11 2.85  12 2.85  13 2.85  15 2.85
                            14 3.29  14 3.29
   4  0.750  0.250  0.750-   1 2.85   5 2.85   8 2.85  10 2.85  11 2.85  12 2.85  13 2.85  15 2.85
                            14 3.29  14 3.29
   5  0.500  0.000  0.000-   2 2.85   3 2.85   4 2.85   6 2.85   7 2.85   9 2.85  14 2.85  16 2.85
                            11 3.29  11 3.29
   6  0.250  0.250  0.250-   1 2.85   5 2.85   8 2.85  10 2.85  11 2.85  12 2.85  13 2.85  15 2.85
                            14 3.29  14 3.29
   7  0.250  0.750  0.250-   1 2.85   5 2.85   8 2.85  10 2.85  11 2.85  12 2.85  13 2.85  15 2.85
                             9 3.29   9 3.29
   8  0.500  0.500  0.000-   2 2.85   3 2.85   4 2.85   6 2.85   7 2.85   9 2.85  14 2.85  16 2.85
                            10 3.29  12 3.29  10 3.29  12 3.29
   9  0.750  0.750  0.250-   1 2.85   5 2.85   8 2.85  10 2.85  11 2.85  12 2.85  13 2.85  15 2.85
                             2 3.29   7 3.29  16 3.29  16 3.29   2 3.29   7 3.29
  10  0.500  0.500  0.500-   2 2.85   3 2.85   4 2.85   6 2.85   7 2.85   9 2.85  14 2.85  16 2.85
                             8 3.29  15 3.29   1 3.29   8 3.29   1 3.29  15 3.29
  11  0.000  0.000  0.000-   2 2.85   3 2.85   4 2.85   6 2.85   7 2.85   9 2.85  14 2.85  16 2.85
                            13 3.29   5 3.29  12 3.29  13 3.29  12 3.29   5 3.29
  12  0.000  0.500  0.000-   2 2.85   3 2.85   4 2.85   6 2.85   7 2.85   9 2.85  14 2.85  16 2.85
                             8 3.29  15 3.29  11 3.29  15 3.29  11 3.29   8 3.29
  13  0.000  0.000  0.500-   2 2.85   3 2.85   4 2.85   6 2.85   7 2.85   9 2.85  14 2.85  16 2.85
                             1 3.29  15 3.29  11 3.29  11 3.29  15 3.29   1 3.29
  14  0.250  0.250  0.750-   1 2.85   5 2.85   8 2.85  10 2.85  11 2.85  12 2.85  13 2.85  15 2.85
                             4 3.29   3 3.29   6 3.29   6 3.29   3 3.29   4 3.29
  15  0.000  0.500  0.500-   2 2.85   3 2.85   4 2.85   6 2.85   7 2.85   9 2.85  14 2.85  16 2.85
                            13 3.29  10 3.29  12 3.29  12 3.29  13 3.29  10 3.29
  16  0.750  0.750  0.750-   1 2.85   5 2.85   8 2.85  10 2.85  11 2.85  12 2.85  13 2.85  15 2.85
                             9 3.29   9 3.29
 
  LATTYP: Found a simple cubic cell.
 ALAT       =     6.5800000000
  
  Lattice vectors:
  
 A1 = (   6.5800000000,   0.0000000000,   0.0000000000)
 A2 = (   0.0000000000,   6.5800000000,   0.0000000000)
 A3 = (   0.0000000000,   0.0000000000,   6.5800000000)


Analysis of symmetry for initial positions (statically):
=====================================================================
 Subroutine PRICEL returns:
 Original cell was already a primitive cell.
 

 Routine SETGRP: Setting up the symmetry group for a 
 simple cubic supercell.


 Subroutine GETGRP returns: Found  1 space group operations
 (whereof  1 operations were pure point group operations)
 out of a pool of 48 trial point group operations.


The static configuration has the point symmetry C_1 .


Analysis of symmetry for dynamics (positions and initial velocities):
=====================================================================
 Subroutine PRICEL returns:
 Original cell was already a primitive cell.
 

 Routine SETGRP: Setting up the symmetry group for a 
 simple cubic supercell.


 Subroutine GETGRP returns: Found  1 space group operations
 (whereof  1 operations were pure point group operations)
 out of a pool of 48 trial point group operations.


The dynamic configuration has the point symmetry C_1 .


 Subroutine INISYM returns: Found  1 space group operations
 (whereof  1 operations are pure point group operations),
 and found     1 'primitive' translations


----------------------------------------------------------------------------------------

                                     Primitive cell                                     

  volume of cell :     284.8903

  direct lattice vectors                    reciprocal lattice vectors
     6.580000000  0.000000000  0.000000000     0.151975684  0.000000000  0.000000000
     0.000000000  6.580000000  0.000000000     0.000000000  0.151975684  0.000000000
     0.000000000  0.000000000  6.580000000     0.000000000  0.000000000  0.151975684

  length of vectors
     6.580000000  6.580000000  6.580000000     0.151975684  0.151975684  0.151975684

  position of ions in fractional coordinates (direct lattice)
     0.500000000  0.000000000  0.500000000
     0.750000000  0.250000000  0.250000000
     0.250000000  0.750000000  0.750000000
     0.750000000  0.250000000  0.750000000
     0.500000000  0.000000000  0.000000000
     0.250000000  0.250000000  0.250000000
     0.250000000  0.750000000  0.250000000
     0.500000000  0.500000000  0.000000000
     0.750000000  0.750000000  0.250000000
     0.500000000  0.500000000  0.500000000
     0.000000000  0.000000000  0.000000000
     0.000000000  0.500000000  0.000000000
     0.000000000  0.000000000  0.500000000
     0.250000000  0.250000000  0.750000000
     0.000000000  0.500000000  0.500000000
     0.750000000  0.750000000  0.750000000

  ion indices of the primitive-cell ions
   primitive index   ion index
                 1           1
                 2           2
                 3           3
                 4           4
                 5           5
                 6           6
                 7           7
                 8           8
                 9           9
                10          10
                11          11
                12          12
                13          13
                14          14
                15          15
                16          16

----------------------------------------------------------------------------------------

 
 
 KPOINTS: K-Spacing Value to Generate K-Mesh: 0.03

Automatic generation of k-mesh.
 Grid dimensions read from file:
 generate k-points for:    5    5    5

 Generating k-lattice:

  Cartesian coordinates                     Fractional coordinates (reciprocal lattice)
     0.030395137  0.000000000  0.000000000     0.200000000  0.000000000  0.000000000
     0.000000000  0.030395137  0.000000000     0.000000000  0.200000000  0.000000000
     0.000000000  0.000000000  0.030395137     0.000000000  0.000000000  0.200000000

  Length of vectors
     0.030395137  0.030395137  0.030395137

  Shift w.r.t. Gamma in fractional coordinates (k-lattice)
     0.000000000  0.000000000  0.000000000

 
 Subroutine IBZKPT returns following result:
 ===========================================
 
 Found     63 irreducible k-points:
 
 Following reciprocal coordinates:
            Coordinates               Weight
  0.000000  0.000000  0.000000      1.000000
  0.200000  0.000000  0.000000      2.000000
  0.000000  0.200000  0.000000      2.000000
  0.000000  0.000000  0.200000      2.000000
  0.400000  0.000000  0.000000      2.000000
  0.000000  0.400000  0.000000      2.000000
  0.000000  0.000000  0.400000      2.000000
  0.200000  0.200000  0.000000      2.000000
  0.000000  0.200000  0.200000      2.000000
  0.200000  0.000000  0.200000      2.000000
 -0.200000  0.200000  0.000000      2.000000
 -0.200000  0.000000  0.200000      2.000000
  0.000000 -0.200000  0.200000      2.000000
  0.400000  0.200000  0.000000      2.000000
  0.000000  0.400000  0.200000      2.000000
  0.200000  0.000000  0.400000      2.000000
 -0.200000  0.400000  0.000000      2.000000
 -0.400000  0.000000  0.200000      2.000000
  0.000000  0.200000  0.400000      2.000000
  0.000000 -0.400000  0.200000      2.000000
 -0.200000  0.000000  0.400000      2.000000
  0.400000  0.000000  0.200000      2.000000
  0.000000 -0.200000  0.400000      2.000000
  0.400000 -0.200000  0.000000      2.000000
  0.200000  0.400000  0.000000      2.000000
  0.400000  0.400000  0.000000      2.000000
  0.000000  0.400000  0.400000      2.000000
  0.400000  0.000000  0.400000      2.000000
 -0.400000  0.400000  0.000000      2.000000
 -0.400000  0.000000  0.400000      2.000000
  0.000000 -0.400000  0.400000      2.000000
  0.200000  0.200000  0.200000      2.000000
 -0.200000  0.200000  0.200000      2.000000
 -0.200000 -0.200000  0.200000      2.000000
  0.200000 -0.200000  0.200000      2.000000
  0.400000  0.200000  0.200000      2.000000
  0.200000  0.400000  0.200000      2.000000
  0.200000  0.200000  0.400000      2.000000
 -0.200000  0.400000  0.200000      2.000000
 -0.400000  0.200000  0.200000      2.000000
 -0.200000  0.200000  0.400000      2.000000
 -0.400000 -0.200000  0.200000      2.000000
 -0.200000 -0.400000  0.200000      2.000000
 -0.200000 -0.200000  0.400000      2.000000
  0.200000 -0.400000  0.200000      2.000000
  0.400000 -0.200000  0.200000      2.000000
  0.200000 -0.200000  0.400000      2.000000
  0.400000  0.400000  0.200000      2.000000
  0.200000  0.400000  0.400000      2.000000
  0.400000  0.200000  0.400000      2.000000
 -0.400000  0.400000  0.200000      2.000000
 -0.400000  0.200000  0.400000      2.000000
 -0.200000  0.400000  0.400000      2.000000
 -0.400000 -0.400000  0.200000      2.000000
 -0.200000 -0.400000  0.400000      2.000000
 -0.400000 -0.200000  0.400000      2.000000
  0.400000 -0.400000  0.200000      2.000000
  0.400000 -0.200000  0.400000      2.000000
  0.200000 -0.400000  0.400000      2.000000
  0.400000  0.400000  0.400000      2.000000
 -0.400000  0.400000  0.400000      2.000000
 -0.400000 -0.400000  0.400000      2.000000
  0.400000 -0.400000  0.400000      2.000000
 
 Following cartesian coordinates:
            Coordinates               Weight
  0.000000  0.000000  0.000000      1.000000
  0.030395  0.000000  0.000000      2.000000
  0.000000  0.030395  0.000000      2.000000
  0.000000  0.000000  0.030395      2.000000
  0.060790  0.000000  0.000000      2.000000
  0.000000  0.060790  0.000000      2.000000
  0.000000  0.000000  0.060790      2.000000
  0.030395  0.030395  0.000000      2.000000
  0.000000  0.030395  0.030395      2.000000
  0.030395  0.000000  0.030395      2.000000
 -0.030395  0.030395  0.000000      2.000000
 -0.030395  0.000000  0.030395      2.000000
  0.000000 -0.030395  0.030395      2.000000
  0.060790  0.030395  0.000000      2.000000
  0.000000  0.060790  0.030395      2.000000
  0.030395  0.000000  0.060790      2.000000
 -0.030395  0.060790  0.000000      2.000000
 -0.060790  0.000000  0.030395      2.000000
  0.000000  0.030395  0.060790      2.000000
  0.000000 -0.060790  0.030395      2.000000
 -0.030395  0.000000  0.060790      2.000000
  0.060790  0.000000  0.030395      2.000000
  0.000000 -0.030395  0.060790      2.000000
  0.060790 -0.030395  0.000000      2.000000
  0.030395  0.060790  0.000000      2.000000
  0.060790  0.060790  0.000000      2.000000
  0.000000  0.060790  0.060790      2.000000
  0.060790  0.000000  0.060790      2.000000
 -0.060790  0.060790  0.000000      2.000000
 -0.060790  0.000000  0.060790      2.000000
  0.000000 -0.060790  0.060790      2.000000
  0.030395  0.030395  0.030395      2.000000
 -0.030395  0.030395  0.030395      2.000000
 -0.030395 -0.030395  0.030395      2.000000
  0.030395 -0.030395  0.030395      2.000000
  0.060790  0.030395  0.030395      2.000000
  0.030395  0.060790  0.030395      2.000000
  0.030395  0.030395  0.060790      2.000000
 -0.030395  0.060790  0.030395      2.000000
 -0.060790  0.030395  0.030395      2.000000
 -0.030395  0.030395  0.060790      2.000000
 -0.060790 -0.030395  0.030395      2.000000
 -0.030395 -0.060790  0.030395      2.000000
 -0.030395 -0.030395  0.060790      2.000000
  0.030395 -0.060790  0.030395      2.000000
  0.060790 -0.030395  0.030395      2.000000
  0.030395 -0.030395  0.060790      2.000000
  0.060790  0.060790  0.030395      2.000000
  0.030395  0.060790  0.060790      2.000000
  0.060790  0.030395  0.060790      2.000000
 -0.060790  0.060790  0.030395      2.000000
 -0.060790  0.030395  0.060790      2.000000
 -0.030395  0.060790  0.060790      2.000000
 -0.060790 -0.060790  0.030395      2.000000
 -0.030395 -0.060790  0.060790      2.000000
 -0.060790 -0.030395  0.060790      2.000000
  0.060790 -0.060790  0.030395      2.000000
  0.060790 -0.030395  0.060790      2.000000
  0.030395 -0.060790  0.060790      2.000000
  0.060790  0.060790  0.060790      2.000000
 -0.060790  0.060790  0.060790      2.000000
 -0.060790 -0.060790  0.060790      2.000000
  0.060790 -0.060790  0.060790      2.000000
 


--------------------------------------------------------------------------------------------------------




 Dimension of arrays:
   k-points           NKPTS =     63   k-points in BZ     NKDIM =     63   number of bands    NBANDS=    120
   number of dos      NEDOS =    301   number of ions     NIONS =     16
   non local maximal  LDIM  =      6   non local SUM 2l+1 LMDIM =     18
   total plane-waves  NPLWV =  46656
   max r-space proj   IRMAX =      1   max aug-charges    IRDMAX=   9546
   dimension x,y,z NGX =    36 NGY =   36 NGZ =   36
   dimension x,y,z NGXF=    72 NGYF=   72 NGZF=   72
   support grid    NGXF=    72 NGYF=   72 NGZF=   72
   ions per type =               6   2   7   1
   NGX,Y,Z   is equivalent  to a cutoff of   9.10,  9.10,  9.10 a.u.
   NGXF,Y,Z  is equivalent  to a cutoff of  18.19, 18.19, 18.19 a.u.

 SYSTEM =  unknown system                          
 POSCAR =  Nb-Mo-Ta-W alloy                        

 Startparameter for this run:
   NWRITE =      2    write-flag & timer
   PREC   = accura    normal or accurate (medium, high low for compatibility)
   ISTART =      0    job   : 0-new  1-cont  2-samecut
   ICHARG =      2    charge: 1-file 2-atom 10-const
   ISPIN  =      1    spin polarized calculation?
   LNONCOLLINEAR =      F non collinear calculations
   LSORBIT =      F    spin-orbit coupling
   INIWAV =      1    electr: 0-lowe 1-rand  2-diag
   LASPH  =      F    aspherical Exc in radial PAW
 Electronic Relaxation 1
   ENCUT  =  250.0 eV  18.37 Ry    4.29 a.u.   8.48  8.48  8.48*2*pi/ulx,y,z
   ENINI  =  250.0     initial cutoff
   ENAUG  =  455.7 eV  augmentation charge cutoff
   NELM   =     80;   NELMIN=  2; NELMDL= -5     # of ELM steps 
   EDIFF  = 0.1E-07   stopping-criterion for ELM
   LREAL  =      F    real-space projection
   NLSPLINE    = F    spline interpolate recip. space projectors
   LCOMPAT=      F    compatible to vasp.4.4
   GGA_COMPAT  = T    GGA compatible to vasp.4.4-vasp.4.6
   LMAXPAW     = -100 max onsite density
   LMAXMIX     =    2 max onsite mixed and CHGCAR
   VOSKOWN=      0    Vosko Wilk Nusair interpolation
   ROPT   =    0.00000   0.00000   0.00000   0.00000
 Ionic relaxation
   EDIFFG = -.1E-01   stopping-criterion for IOM
   NSW    =      0    number of steps for IOM
   NBLOCK =      1;   KBLOCK =      1    inner block; outer block 
   IBRION =     -1    ionic relax: 0-MD 1-quasi-New 2-CG
   NFREE  =      0    steps in history (QN), initial steepest desc. (CG)
   ISIF   =      2    stress and relaxation
   IWAVPR =     10    prediction:  0-non 1-charg 2-wave 3-comb
   ISYM   =      2    0-nonsym 1-usesym 2-fastsym
   LCORR  =      T    Harris-Foulkes like correction to forces

   POTIM  = 0.5000    time-step for ionic-motion
   TEIN   =    0.0    initial temperature
   TEBEG  =    0.0;   TEEND  =   0.0 temperature during run
   SMASS  =  -3.00    Nose mass-parameter (am)
   estimated Nose-frequenzy (Omega)   =  0.10E-29 period in steps = 0.13E+47 mass=  -0.989E-27a.u.
   SCALEE = 1.0000    scale energy and forces
   NPACO  =    256;   APACO  = 10.0  distance and # of slots for P.C.
   PSTRESS=    0.0 pullay stress

  Mass of Ions in am
   POMASS =  92.91 95.94180.95183.85
  Ionic Valenz
   ZVAL   =  13.00 14.00 11.00 14.00
  Atomic Wigner-Seitz radii
   RWIGS  =  -1.00 -1.00 -1.00 -1.00
  virtual crystal weights 
   VCA    =   1.00  1.00  1.00  1.00
   NELECT =     197.0000    total number of electrons
   NUPDOWN=      -1.0000    fix difference up-down

 DOS related values:
   EMIN   =  10.00;   EMAX   =-10.00  energy-range for DOS
   EFERMI =   0.00
   ISMEAR =     0;   SIGMA  =   0.02  broadening in eV -4-tet -1-fermi 0-gaus

 Electronic relaxation 2 (details)
   IALGO  =     38    algorithm
   LDIAG  =      T    sub-space diagonalisation (order eigenvalues)
   LSUBROT=      F    optimize rotation matrix (better conditioning)
   TURBO    =      0    0=normal 1=particle mesh
   IRESTART =      0    0=no restart 2=restart with 2 vectors
   NREBOOT  =      0    no. of reboots
   NMIN     =      0    reboot dimension
   EREF     =   0.00    reference energy to select bands
   IMIX   =      4    mixing-type and parameters
     AMIX     =   0.40;   BMIX     =  1.00
     AMIX_MAG =   1.60;   BMIX_MAG =  1.00
     AMIN     =   0.10
     WC   =   100.;   INIMIX=   1;  MIXPRE=   1;  MAXMIX= -45

 Intra band minimization:
   WEIMIN = 0.0000     energy-eigenvalue tresh-hold
   EBREAK =  0.21E-10  absolut break condition
   DEPER  =   0.30     relativ break condition  

   TIME   =   0.40     timestep for ELM

  volume/ion in A,a.u.               =      17.81       120.16
  Fermi-wavevector in a.u.,A,eV,Ry     =   1.447675  2.735709 28.514577  2.095762
  Thomas-Fermi vector in A             =   2.565603
 
 Write flags
   LWAVE        =      F    write WAVECAR
   LDOWNSAMPLE  =      F    k-point downsampling of WAVECAR
   LCHARG       =      F    write CHGCAR
   LVTOT        =      F    write LOCPOT, total local potential
   LVHAR        =      F    write LOCPOT, Hartree potential only
   LELF         =      F    write electronic localiz. function (ELF)
   LORBIT       =      0    0 simple, 1 ext, 2 COOP (PROOUT), +10 PAW based schemes


 Dipole corrections
   LMONO  =      F    monopole corrections only (constant potential shift)
   LDIPOL =      F    correct potential (dipole corrections)
   IDIPOL =      0    1-x, 2-y, 3-z, 4-all directions 
   EPSILON=  1.0000000 bulk dielectric constant

 Core level calculations are selected ICORELEVEL =  1
 Exchange correlation treatment:
   GGA     =    PE    GGA type
   LEXCH   =     8    internal setting for exchange type
   LIBXC   =     F    Libxc                    
   VOSKOWN =     0    Vosko Wilk Nusair interpolation
   LHFCALC =     F    Hartree Fock is set to
   LHFONE  =     F    Hartree Fock one center treatment
   AEXX    =    0.0000 exact exchange contribution

 Linear response parameters
   LEPSILON=     F    determine dielectric tensor
   LRPA    =     F    only Hartree local field effects (RPA)
   LNABLA  =     F    use nabla operator in PAW spheres
   LVEL    =     F    velocity operator in full k-point grid
   CSHIFT  =0.1000    complex shift for real part using Kramers Kronig
   OMEGAMAX=  -1.0    maximum frequency
   DEG_THRESHOLD= 0.2000000E-02 threshold for treating states as degnerate
   RTIME   =   -0.100 relaxation time in fs
  (WPLASMAI=    0.000 imaginary part of plasma frequency in eV, 0.658/RTIME)
   DFIELD  = 0.0000000 0.0000000 0.0000000 field for delta impulse in time
 
  Optional k-point grid parameters
   LKPOINTS_OPT  =     F    use optional k-point grid
   KPOINTS_OPT_MODE=     1    mode for optional k-point grid
 
 Orbital magnetization related:
   ORBITALMAG=     F  switch on orbital magnetization
   LCHIMAG   =     F  perturbation theory with respect to B field
   DQ        =  0.001000  dq finite difference perturbation B field
   LLRAUG    =     F  two centre corrections for induced B field



--------------------------------------------------------------------------------------------------------


 Static calculation
 charge density and potential will be updated during run
 non-spin polarized calculation
 Variant of blocked Davidson
 Davidson routine will perform the subspace rotation
 perform sub-space diagonalisation
    after iterative eigenvector-optimisation
 modified Broyden-mixing scheme, WC =      100.0
 initial mixing is a Kerker type mixing with AMIX =  0.4000 and BMIX =      1.0000
 Hartree-type preconditioning will be used
 using additional bands           21
 reciprocal scheme for non local part
 use partial core corrections
 calculate Harris-corrections to forces 
   (improved forces if not selfconsistent)
 use gradient corrections 
 use of overlap-Matrix (Vanderbilt PP)
 Gauss-broadening in eV      SIGMA  =   0.02


--------------------------------------------------------------------------------------------------------


  energy-cutoff  :      250.00
  volume of cell :      284.89
      direct lattice vectors                 reciprocal lattice vectors
     6.580000000  0.000000000  0.000000000     0.151975684  0.000000000  0.000000000
     0.000000000  6.580000000  0.000000000     0.000000000  0.151975684  0.000000000
     0.000000000  0.000000000  6.580000000     0.000000000  0.000000000  0.151975684

  length of vectors
     6.580000000  6.580000000  6.580000000     0.151975684  0.151975684  0.151975684


 
 k-points in units of 2pi/SCALE and weight: K-Spacing Value to Generate K-Mesh: 0.03
   0.00000000  0.00000000  0.00000000       0.008
   0.03039514  0.00000000  0.00000000       0.016
   0.00000000  0.03039514  0.00000000       0.016
   0.00000000  0.00000000  0.03039514       0.016
   0.06079027  0.00000000  0.00000000       0.016
   0.00000000  0.06079027  0.00000000       0.016
   0.00000000  0.00000000  0.06079027       0.016
   0.03039514  0.03039514  0.00000000       0.016
   0.00000000  0.03039514  0.03039514       0.016
   0.03039514  0.00000000  0.03039514       0.016
  -0.03039514  0.03039514  0.00000000       0.016
  -0.03039514  0.00000000  0.03039514       0.016
   0.00000000 -0.03039514  0.03039514       0.016
   0.06079027  0.03039514  0.00000000       0.016
   0.00000000  0.06079027  0.03039514       0.016
   0.03039514  0.00000000  0.06079027       0.016
  -0.03039514  0.06079027  0.00000000       0.016
  -0.06079027  0.00000000  0.03039514       0.016
   0.00000000  0.03039514  0.06079027       0.016
   0.00000000 -0.06079027  0.03039514       0.016
  -0.03039514  0.00000000  0.06079027       0.016
   0.06079027  0.00000000  0.03039514       0.016
   0.00000000 -0.03039514  0.06079027       0.016
   0.06079027 -0.03039514  0.00000000       0.016
   0.03039514  0.06079027  0.00000000       0.016
   0.06079027  0.06079027  0.00000000       0.016
   0.00000000  0.06079027  0.06079027       0.016
   0.06079027  0.00000000  0.06079027       0.016
  -0.06079027  0.06079027  0.00000000       0.016
  -0.06079027  0.00000000  0.06079027       0.016
   0.00000000 -0.06079027  0.06079027       0.016
   0.03039514  0.03039514  0.03039514       0.016
  -0.03039514  0.03039514  0.03039514       0.016
  -0.03039514 -0.03039514  0.03039514       0.016
   0.03039514 -0.03039514  0.03039514       0.016
   0.06079027  0.03039514  0.03039514       0.016
   0.03039514  0.06079027  0.03039514       0.016
   0.03039514  0.03039514  0.06079027       0.016
  -0.03039514  0.06079027  0.03039514       0.016
  -0.06079027  0.03039514  0.03039514       0.016
  -0.03039514  0.03039514  0.06079027       0.016
  -0.06079027 -0.03039514  0.03039514       0.016
  -0.03039514 -0.06079027  0.03039514       0.016
  -0.03039514 -0.03039514  0.06079027       0.016
   0.03039514 -0.06079027  0.03039514       0.016
   0.06079027 -0.03039514  0.03039514       0.016
   0.03039514 -0.03039514  0.06079027       0.016
   0.06079027  0.06079027  0.03039514       0.016
   0.03039514  0.06079027  0.06079027       0.016
   0.06079027  0.03039514  0.06079027       0.016
  -0.06079027  0.06079027  0.03039514       0.016
  -0.06079027  0.03039514  0.06079027       0.016
  -0.03039514  0.06079027  0.06079027       0.016
  -0.06079027 -0.06079027  0.03039514       0.016
  -0.03039514 -0.06079027  0.06079027       0.016
  -0.06079027 -0.03039514  0.06079027       0.016
   0.06079027 -0.06079027  0.03039514       0.016
   0.06079027 -0.03039514  0.06079027       0.016
   0.03039514 -0.06079027  0.06079027       0.016
   0.06079027  0.06079027  0.06079027       0.016
  -0.06079027  0.06079027  0.06079027       0.016
  -0.06079027 -0.06079027  0.06079027       0.016
   0.06079027 -0.06079027  0.06079027       0.016
 
 k-points in reciprocal lattice and weights: K-Spacing Value to Generate K-Mesh: 0.03
   0.00000000  0.00000000  0.00000000       0.008
   0.20000000  0.00000000  0.00000000       0.016
   0.00000000  0.20000000  0.00000000       0.016
   0.00000000  0.00000000  0.20000000       0.016
   0.40000000  0.00000000  0.00000000       0.016
   0.00000000  0.40000000  0.00000000       0.016
   0.00000000  0.00000000  0.40000000       0.016
   0.20000000  0.20000000  0.00000000       0.016
   0.00000000  0.20000000  0.20000000       0.016
   0.20000000  0.00000000  0.20000000       0.016
  -0.20000000  0.20000000  0.00000000       0.016
  -0.20000000  0.00000000  0.20000000       0.016
   0.00000000 -0.20000000  0.20000000       0.016
   0.40000000  0.20000000  0.00000000       0.016
   0.00000000  0.40000000  0.20000000       0.016
   0.20000000  0.00000000  0.40000000       0.016
  -0.20000000  0.40000000  0.00000000       0.016
  -0.40000000  0.00000000  0.20000000       0.016
   0.00000000  0.20000000  0.40000000       0.016
   0.00000000 -0.40000000  0.20000000       0.016
  -0.20000000  0.00000000  0.40000000       0.016
   0.40000000  0.00000000  0.20000000       0.016
   0.00000000 -0.20000000  0.40000000       0.016
   0.40000000 -0.20000000  0.00000000       0.016
   0.20000000  0.40000000  0.00000000       0.016
   0.40000000  0.40000000  0.00000000       0.016
   0.00000000  0.40000000  0.40000000       0.016
   0.40000000  0.00000000  0.40000000       0.016
  -0.40000000  0.40000000  0.00000000       0.016
  -0.40000000  0.00000000  0.40000000       0.016
   0.00000000 -0.40000000  0.40000000       0.016
   0.20000000  0.20000000  0.20000000       0.016
  -0.20000000  0.20000000  0.20000000       0.016
  -0.20000000 -0.20000000  0.20000000       0.016
   0.20000000 -0.20000000  0.20000000       0.016
   0.40000000  0.20000000  0.20000000       0.016
   0.20000000  0.40000000  0.20000000       0.016
   0.20000000  0.20000000  0.40000000       0.016
  -0.20000000  0.40000000  0.20000000       0.016
  -0.40000000  0.20000000  0.20000000       0.016
  -0.20000000  0.20000000  0.40000000       0.016
  -0.40000000 -0.20000000  0.20000000       0.016
  -0.20000000 -0.40000000  0.20000000       0.016
  -0.20000000 -0.20000000  0.40000000       0.016
   0.20000000 -0.40000000  0.20000000       0.016
   0.40000000 -0.20000000  0.20000000       0.016
   0.20000000 -0.20000000  0.40000000       0.016
   0.40000000  0.40000000  0.20000000       0.016
   0.20000000  0.40000000  0.40000000       0.016
   0.40000000  0.20000000  0.40000000       0.016
  -0.40000000  0.40000000  0.20000000       0.016
  -0.40000000  0.20000000  0.40000000       0.016
  -0.20000000  0.40000000  0.40000000       0.016
  -0.40000000 -0.40000000  0.20000000       0.016
  -0.20000000 -0.40000000  0.40000000       0.016
  -0.40000000 -0.20000000  0.40000000       0.016
   0.40000000 -0.40000000  0.20000000       0.016
   0.40000000 -0.20000000  0.40000000       0.016
   0.20000000 -0.40000000  0.40000000       0.016
   0.40000000  0.40000000  0.40000000       0.016
  -0.40000000  0.40000000  0.40000000       0.016
  -0.40000000 -0.40000000  0.40000000       0.016
   0.40000000 -0.40000000  0.40000000       0.016
 
 position of ions in fractional coordinates (direct lattice) 
   0.50000000  0.00000000  0.50000000
   0.75000000  0.25000000  0.25000000
   0.25000000  0.75000000  0.75000000
   0.75000000  0.25000000  0.75000000
   0.50000000  0.00000000  0.00000000
   0.25000000  0.25000000  0.25000000
   0.25000000  0.75000000  0.25000000
   0.50000000  0.50000000  0.00000000
   0.75000000  0.75000000  0.25000000
   0.50000000  0.50000000  0.50000000
   0.00000000  0.00000000  0.00000000
   0.00000000  0.50000000  0.00000000
   0.00000000  0.00000000  0.50000000
   0.25000000  0.25000000  0.75000000
   0.00000000  0.50000000  0.50000000
   0.75000000  0.75000000  0.75000000
 
 position of ions in cartesian coordinates  (Angst):
   3.29000000  0.00000000  3.29000000
   4.93500000  1.64500000  1.64500000
   1.64500000  4.93500000  4.93500000
   4.93500000  1.64500000  4.93500000
   3.29000000  0.00000000  0.00000000
   1.64500000  1.64500000  1.64500000
   1.64500000  4.93500000  1.64500000
   3.29000000  3.29000000  0.00000000
   4.93500000  4.93500000  1.64500000
   3.29000000  3.29000000  3.29000000
   0.00000000  0.00000000  0.00000000
   0.00000000  3.29000000  0.00000000
   0.00000000  0.00000000  3.29000000
   1.64500000  1.64500000  4.93500000
   0.00000000  3.29000000  3.29000000
   4.93500000  4.93500000  4.93500000
 


--------------------------------------------------------------------------------------------------------


 k-point   1 :   0.0000 0.0000 0.0000  plane waves:    2517
 k-point   2 :   0.2000 0.0000 0.0000  plane waves:    2545
 k-point   3 :   0.0000 0.2000 0.0000  plane waves:    2545
 k-point   4 :   0.0000 0.0000 0.2000  plane waves:    2545
 k-point   5 :   0.4000 0.0000 0.0000  plane waves:    2569
 k-point   6 :   0.0000 0.4000 0.0000  plane waves:    2569
 k-point   7 :   0.0000 0.0000 0.4000  plane waves:    2569
 k-point   8 :   0.2000 0.2000 0.0000  plane waves:    2562
 k-point   9 :   0.0000 0.2000 0.2000  plane waves:    2562
 k-point  10 :   0.2000 0.0000 0.2000  plane waves:    2562
 k-point  11 :  -0.2000 0.2000 0.0000  plane waves:    2562
 k-point  12 :  -0.2000 0.0000 0.2000  plane waves:    2562
 k-point  13 :   0.0000-0.2000 0.2000  plane waves:    2562
 k-point  14 :   0.4000 0.2000 0.0000  plane waves:    2566
 k-point  15 :   0.0000 0.4000 0.2000  plane waves:    2566
 k-point  16 :   0.2000 0.0000 0.4000  plane waves:    2566
 k-point  17 :  -0.2000 0.4000 0.0000  plane waves:    2566
 k-point  18 :  -0.4000 0.0000 0.2000  plane waves:    2566
 k-point  19 :   0.0000 0.2000 0.4000  plane waves:    2566
 k-point  20 :   0.0000-0.4000 0.2000  plane waves:    2566
 k-point  21 :  -0.2000 0.0000 0.4000  plane waves:    2566
 k-point  22 :   0.4000 0.0000 0.2000  plane waves:    2566
 k-point  23 :   0.0000-0.2000 0.4000  plane waves:    2566
 k-point  24 :   0.4000-0.2000 0.0000  plane waves:    2566
 k-point  25 :   0.2000 0.4000 0.0000  plane waves:    2566
 k-point  26 :   0.4000 0.4000 0.0000  plane waves:    2570
 k-point  27 :   0.0000 0.4000 0.4000  plane waves:    2570
 k-point  28 :   0.4000 0.0000 0.4000  plane waves:    2570
 k-point  29 :  -0.4000 0.4000 0.0000  plane waves:    2570
 k-point  30 :  -0.4000 0.0000 0.4000  plane waves:    2570
 k-point  31 :   0.0000-0.4000 0.4000  plane waves:    2570
 k-point  32 :   0.2000 0.2000 0.2000  plane waves:    2572
 k-point  33 :  -0.2000 0.2000 0.2000  plane waves:    2572
 k-point  34 :  -0.2000-0.2000 0.2000  plane waves:    2572
 k-point  35 :   0.2000-0.2000 0.2000  plane waves:    2572
 k-point  36 :   0.4000 0.2000 0.2000  plane waves:    2546
 k-point  37 :   0.2000 0.4000 0.2000  plane waves:    2546
 k-point  38 :   0.2000 0.2000 0.4000  plane waves:    2546
 k-point  39 :  -0.2000 0.4000 0.2000  plane waves:    2546
 k-point  40 :  -0.4000 0.2000 0.2000  plane waves:    2546
 k-point  41 :  -0.2000 0.2000 0.4000  plane waves:    2546
 k-point  42 :  -0.4000-0.2000 0.2000  plane waves:    2546
 k-point  43 :  -0.2000-0.4000 0.2000  plane waves:    2546
 k-point  44 :  -0.2000-0.2000 0.4000  plane waves:    2546
 k-point  45 :   0.2000-0.4000 0.2000  plane waves:    2546
 k-point  46 :   0.4000-0.2000 0.2000  plane waves:    2546
 k-point  47 :   0.2000-0.2000 0.4000  plane waves:    2546
 k-point  48 :   0.4000 0.4000 0.2000  plane waves:    2549
 k-point  49 :   0.2000 0.4000 0.4000  plane waves:    2549
 k-point  50 :   0.4000 0.2000 0.4000  plane waves:    2549
 k-point  51 :  -0.4000 0.4000 0.2000  plane waves:    2549
 k-point  52 :  -0.4000 0.2000 0.4000  plane waves:    2549
 k-point  53 :  -0.2000 0.4000 0.4000  plane waves:    2549
 k-point  54 :  -0.4000-0.4000 0.2000  plane waves:    2549
 k-point  55 :  -0.2000-0.4000 0.4000  plane waves:    2549
 k-point  56 :  -0.4000-0.2000 0.4000  plane waves:    2549
 k-point  57 :   0.4000-0.4000 0.2000  plane waves:    2549
 k-point  58 :   0.4000-0.2000 0.4000  plane waves:    2549
 k-point  59 :   0.2000-0.4000 0.4000  plane waves:    2549
 k-point  60 :   0.4000 0.4000 0.4000  plane waves:    2533
 k-point  61 :  -0.4000 0.4000 0.4000  plane waves:    2533
 k-point  62 :  -0.4000-0.4000 0.4000  plane waves:    2533
 k-point  63 :   0.4000-0.4000 0.4000  plane waves:    2533

 maximum and minimum number of plane-waves per node :       235      194

 maximum number of plane-waves:      2572
 maximum index in each direction: 
   IXMAX=    8   IYMAX=    8   IZMAX=    8
   IXMIN=   -8   IYMIN=   -8   IZMIN=   -8


 parallel 3D FFT for wavefunctions:
    minimum data exchange during FFTs selected (reduces bandwidth)
 parallel 3D FFT for charge:
    minimum data exchange during FFTs selected (reduces bandwidth)


 total amount of memory used by VASP MPI-rank0    47721. kBytes
=======================================================================

   base      :      30000. kBytes
   nonl-proj :       8332. kBytes
   fftplans  :        456. kBytes
   grid      :        919. kBytes
   one-center:         31. kBytes
   wavefun   :       7983. kBytes
 
     INWAV:  cpu time      0.0000: real time      0.0001
 Broyden mixing: mesh for mixing (old mesh)
   NGX = 17   NGY = 17   NGZ = 17
  (NGX  = 72   NGY  = 72   NGZ  = 72)
  gives a total of   4913 points

 initial charge density was supplied:
 charge density of overlapping atoms calculated
 number of electron     197.0000000 magnetization 
 keeping initial charge density in first step


--------------------------------------------------------------------------------------------------------


 Maximum index for augmentation-charges          517 (set IRDMAX)


--------------------------------------------------------------------------------------------------------


 First call to EWALD:  gamma=   0.269
 Maximum number of real-space cells 3x 3x 3
 Maximum number of reciprocal cells 3x 3x 3

    FEWALD:  cpu time      0.0012: real time      0.0012


--------------------------------------- Iteration      1(   1)  ---------------------------------------


    POTLOK:  cpu time      0.0207: real time      0.0264
    SETDIJ:  cpu time      0.0025: real time      0.0027
     EDDAV:  cpu time      2.9846: real time      2.9970
       DOS:  cpu time      0.0045: real time      0.0045
    --------------------------------------------
      LOOP:  cpu time      3.0124: real time      3.0306

 eigenvalue-minimisations  : 15664
 total energy-change (2. order) : 0.1697192E+04  (-0.7565420E+04)
 number of electron     197.0000000 magnetization 
 augmentation part      197.0000000 magnetization 

 Free energy of the ion-electron system (eV)
  ---------------------------------------------------
  alpha Z        PSCENC =      1784.87351009
  Ewald energy   TEWEN  =    -19386.00805094
  -Hartree energ DENC   =     -3394.33357171
  -exchange      EXHF   =         0.00000000
  -V(xc)+E(xc)   XCENC  =       697.05417586
  PAW double counting   =     17608.51969824   -17319.07457873
  entropy T*S    EENTRO =        -0.00089438
  eigenvalues    EBANDS =      -543.67902301
  atomic energy  EATOM  =     22249.84054204
  Solvation  Ediel_sol  =         0.00000000
  ---------------------------------------------------
  free energy    TOTEN  =      1697.19180746 eV

  energy without entropy =     1697.19270184  energy(sigma->0) =     1697.19225465


--------------------------------------------------------------------------------------------------------




--------------------------------------- Iteration      1(   2)  ---------------------------------------


     EDDAV:  cpu time      2.9749: real time      2.9871
       DOS:  cpu time      0.0042: real time      0.0042
    --------------------------------------------
      LOOP:  cpu time      2.9791: real time      2.9914

 eigenvalue-minimisations  : 15912
 total energy-change (2. order) :-0.1723876E+04  (-0.1667652E+04)
 number of electron     197.0000000 magnetization 
 augmentation part      197.0000000 magnetization 

 Free energy of the ion-electron system (eV)
  ---------------------------------------------------
  alpha Z        PSCENC =      1784.87351009
  Ewald energy   TEWEN  =    -19386.00805094
  -Hartree energ DENC   =     -3394.33357171
  -exchange      EXHF   =         0.00000000
  -V(xc)+E(xc)   XCENC  =       697.05417586
  PAW double counting   =     17608.51969824   -17319.07457873
  entropy T*S    EENTRO =        -0.00128634
  eigenvalues    EBANDS =     -2267.55428273
  atomic energy  EATOM  =     22249.84054204
  Solvation  Ediel_sol  =         0.00000000
  ---------------------------------------------------
  free energy    TOTEN  =       -26.68384422 eV

  energy without entropy =      -26.68255789  energy(sigma->0) =      -26.68320105


--------------------------------------------------------------------------------------------------------




--------------------------------------- Iteration      1(   3)  ---------------------------------------


     EDDAV:  cpu time      4.1496: real time      4.1665
       DOS:  cpu time      0.0044: real time      0.0044
    --------------------------------------------
      LOOP:  cpu time      4.1540: real time      4.1709

 eigenvalue-minimisations  : 24480
 total energy-change (2. order) :-0.1501189E+03  (-0.1424823E+03)
 number of electron     197.0000000 magnetization 
 augmentation part      197.0000000 magnetization 

 Free energy of the ion-electron system (eV)
  ---------------------------------------------------
  alpha Z        PSCENC =      1784.87351009
  Ewald energy   TEWEN  =    -19386.00805094
  -Hartree energ DENC   =     -3394.33357171
  -exchange      EXHF   =         0.00000000
  -V(xc)+E(xc)   XCENC  =       697.05417586
  PAW double counting   =     17608.51969824   -17319.07457873
  entropy T*S    EENTRO =        -0.00342403
  eigenvalues    EBANDS =     -2417.67107123
  atomic energy  EATOM  =     22249.84054204
  Solvation  Ediel_sol  =         0.00000000
  ---------------------------------------------------
  free energy    TOTEN  =      -176.80277042 eV

  energy without entropy =     -176.79934639  energy(sigma->0) =     -176.80105840


--------------------------------------------------------------------------------------------------------




--------------------------------------- Iteration      1(   4)  ---------------------------------------


     EDDAV:  cpu time      4.0772: real time      4.0933
       DOS:  cpu time      0.0044: real time      0.0045
    --------------------------------------------
      LOOP:  cpu time      4.0817: real time      4.0977

 eigenvalue-minimisations  : 24128
 total energy-change (2. order) :-0.9983378E+01  (-0.9760801E+01)
 number of electron     197.0000000 magnetization 
 augmentation part      197.0000000 magnetization 

 Free energy of the ion-electron system (eV)
  ---------------------------------------------------
  alpha Z        PSCENC =      1784.87351009
  Ewald energy   TEWEN  =    -19386.00805094
  -Hartree energ DENC   =     -3394.33357171
  -exchange      EXHF   =         0.00000000
  -V(xc)+E(xc)   XCENC  =       697.05417586
  PAW double counting   =     17608.51969824   -17319.07457873
  entropy T*S    EENTRO =        -0.00440415
  eigenvalues    EBANDS =     -2427.65346943
  atomic energy  EATOM  =     22249.84054204
  Solvation  Ediel_sol  =         0.00000000
  ---------------------------------------------------
  free energy    TOTEN  =      -186.78614873 eV

  energy without entropy =     -186.78174458  energy(sigma->0) =     -186.78394665


--------------------------------------------------------------------------------------------------------




--------------------------------------- Iteration      1(   5)  ---------------------------------------


     EDDAV:  cpu time      3.9834: real time      4.0459
       DOS:  cpu time      0.0043: real time      0.0043
    CHARGE:  cpu time      0.0809: real time      0.0812
    MIXING:  cpu time      0.0003: real time      0.0003
    --------------------------------------------
      LOOP:  cpu time      4.0689: real time      4.1317

 eigenvalue-minimisations  : 23200
 total energy-change (2. order) :-0.5580663E+00  (-0.5541881E+00)
 number of electron     196.9999821 magnetization 
 augmentation part       38.6909817 magnetization 

 Broyden mixing:
  rms(total) = 0.51167E+01    rms(broyden)= 0.51158E+01
  rms(prec ) = 0.55677E+01
  weight for this iteration     100.00

 Free energy of the ion-electron system (eV)
  ---------------------------------------------------
  alpha Z        PSCENC =      1784.87351009
  Ewald energy   TEWEN  =    -19386.00805094
  -Hartree energ DENC   =     -3394.33357171
  -exchange      EXHF   =         0.00000000
  -V(xc)+E(xc)   XCENC  =       697.05417586
  PAW double counting   =     17608.51969824   -17319.07457873
  entropy T*S    EENTRO =        -0.00409481
  eigenvalues    EBANDS =     -2428.21184507
  atomic energy  EATOM  =     22249.84054204
  Solvation  Ediel_sol  =         0.00000000
  ---------------------------------------------------
  free energy    TOTEN  =      -187.34421503 eV

  energy without entropy =     -187.34012022  energy(sigma->0) =     -187.34216763


--------------------------------------------------------------------------------------------------------




--------------------------------------- Iteration      1(   6)  ---------------------------------------


    POTLOK:  cpu time      0.0045: real time      0.0047
    SETDIJ:  cpu time      0.0018: real time      0.0018
     EDDAV:  cpu time      3.3121: real time      3.3255
       DOS:  cpu time      0.0045: real time      0.0045
    CHARGE:  cpu time      0.0762: real time      0.0765
    MIXING:  cpu time      0.0003: real time      0.0003
    --------------------------------------------
      LOOP:  cpu time      3.3995: real time      3.4133

 eigenvalue-minimisations  : 18304
 total energy-change (2. order) : 0.6253113E+01  (-0.1606040E+01)
 number of electron     196.9999812 magnetization 
 augmentation part       40.0122238 magnetization 

 Broyden mixing:
  rms(total) = 0.21727E+01    rms(broyden)= 0.21725E+01
  rms(prec ) = 0.26175E+01
  weight for this iteration     100.00

 eigenvalues of (default mixing * dielectric matrix)
  average eigenvalue GAMMA=   1.5548
  1.5548

 Free energy of the ion-electron system (eV)
  ---------------------------------------------------
  alpha Z        PSCENC =      1784.87351009
  Ewald energy   TEWEN  =    -19386.00805094
  -Hartree energ DENC   =     -3210.88673985
  -exchange      EXHF   =         0.00000000
  -V(xc)+E(xc)   XCENC  =       687.84539598
  PAW double counting   =     21694.40260075   -21423.32803330
  entropy T*S    EENTRO =        -0.00558880
  eigenvalues    EBANDS =     -2577.82473762
  atomic energy  EATOM  =     22249.84054204
  Solvation  Ediel_sol  =         0.00000000
  ---------------------------------------------------
  free energy    TOTEN  =      -181.09110166 eV

  energy without entropy =     -181.08551285  energy(sigma->0) =     -181.08830725


--------------------------------------------------------------------------------------------------------




--------------------------------------- Iteration      1(   7)  ---------------------------------------


    POTLOK:  cpu time      0.0040: real time      0.0042
    SETDIJ:  cpu time      0.0017: real time      0.0017
     EDDAV:  cpu time      3.5493: real time      3.5634
       DOS:  cpu time      0.0047: real time      0.0047
    CHARGE:  cpu time      0.0808: real time      0.0810
    MIXING:  cpu time      0.0003: real time      0.0003
    --------------------------------------------
      LOOP:  cpu time      3.6408: real time      3.6552

 eigenvalue-minimisations  : 20328
 total energy-change (2. order) :-0.1299971E+01  (-0.1965904E+01)
 number of electron     196.9999820 magnetization 
 augmentation part       39.7913870 magnetization 

 Broyden mixing:
  rms(total) = 0.13178E+01    rms(broyden)= 0.13174E+01
  rms(prec ) = 0.30449E+01
  weight for this iteration     100.00

 eigenvalues of (default mixing * dielectric matrix)
  average eigenvalue GAMMA=   1.1395
  1.7703  0.5087

 Free energy of the ion-electron system (eV)
  ---------------------------------------------------
  alpha Z        PSCENC =      1784.87351009
  Ewald energy   TEWEN  =    -19386.00805094
  -Hartree energ DENC   =     -3155.44973552
  -exchange      EXHF   =         0.00000000
  -V(xc)+E(xc)   XCENC  =       684.51031029
  PAW double counting   =     24614.16807365   -24348.62996716
  entropy T*S    EENTRO =        -0.00467928
  eigenvalues    EBANDS =     -2625.69107629
  atomic energy  EATOM  =     22249.84054204
  Solvation  Ediel_sol  =         0.00000000
  ---------------------------------------------------
  free energy    TOTEN  =      -182.39107312 eV

  energy without entropy =     -182.38639384  energy(sigma->0) =     -182.38873348


--------------------------------------------------------------------------------------------------------




--------------------------------------- Iteration      1(   8)  ---------------------------------------


    POTLOK:  cpu time      0.0045: real time      0.0047
    SETDIJ:  cpu time      0.0017: real time      0.0017
     EDDAV:  cpu time      3.2620: real time      3.2747
       DOS:  cpu time      0.0046: real time      0.0046
    CHARGE:  cpu time      0.0806: real time      0.0809
    MIXING:  cpu time      0.0003: real time      0.0003
    --------------------------------------------
      LOOP:  cpu time      3.3537: real time      3.3668

 eigenvalue-minimisations  : 18152
 total energy-change (2. order) : 0.3260465E+01  (-0.1029752E+01)
 number of electron     196.9999816 magnetization 
 augmentation part       40.2661474 magnetization 

 Broyden mixing:
  rms(total) = 0.36228E+00    rms(broyden)= 0.36134E+00
  rms(prec ) = 0.51896E+00
  weight for this iteration     100.00

 eigenvalues of (default mixing * dielectric matrix)
  average eigenvalue GAMMA=   1.1330
  1.9046  1.1019  0.3924

 Free energy of the ion-electron system (eV)
  ---------------------------------------------------
  alpha Z        PSCENC =      1784.87351009
  Ewald energy   TEWEN  =    -19386.00805094
  -Hartree energ DENC   =     -3112.59217501
  -exchange      EXHF   =         0.00000000
  -V(xc)+E(xc)   XCENC  =       682.66313390
  PAW double counting   =     25894.55281180   -25632.69017710
  entropy T*S    EENTRO =        -0.00523345
  eigenvalues    EBANDS =     -2659.76496968
  atomic energy  EATOM  =     22249.84054204
  Solvation  Ediel_sol  =         0.00000000
  ---------------------------------------------------
  free energy    TOTEN  =      -179.13060834 eV

  energy without entropy =     -179.12537489  energy(sigma->0) =     -179.12799161


--------------------------------------------------------------------------------------------------------




--------------------------------------- Iteration      1(   9)  ---------------------------------------


    POTLOK:  cpu time      0.0045: real time      0.0047
    SETDIJ:  cpu time      0.0018: real time      0.0018
     EDDAV:  cpu time      3.6991: real time      3.7133
       DOS:  cpu time      0.0047: real time      0.0047
    CHARGE:  cpu time      0.0805: real time      0.0808
    MIXING:  cpu time      0.0003: real time      0.0003
    --------------------------------------------
      LOOP:  cpu time      3.7909: real time      3.8056

 eigenvalue-minimisations  : 21408
 total energy-change (2. order) :-0.7842041E-01  (-0.1556594E+00)
 number of electron     196.9999818 magnetization 
 augmentation part       40.1776512 magnetization 

 Broyden mixing:
  rms(total) = 0.28115E+00    rms(broyden)= 0.28096E+00
  rms(prec ) = 0.44320E+00
  weight for this iteration     100.00

 eigenvalues of (default mixing * dielectric matrix)
  average eigenvalue GAMMA=   1.1256
  2.1034  1.5061  0.5273  0.3654

 Free energy of the ion-electron system (eV)
  ---------------------------------------------------
  alpha Z        PSCENC =      1784.87351009
  Ewald energy   TEWEN  =    -19386.00805094
  -Hartree energ DENC   =     -3110.69558425
  -exchange      EXHF   =         0.00000000
  -V(xc)+E(xc)   XCENC  =       682.58811724
  PAW double counting   =     26321.63097136   -26058.55188952
  entropy T*S    EENTRO =        -0.00601570
  eigenvalues    EBANDS =     -2662.88062908
  atomic energy  EATOM  =     22249.84054204
  Solvation  Ediel_sol  =         0.00000000
  ---------------------------------------------------
  free energy    TOTEN  =      -179.20902875 eV

  energy without entropy =     -179.20301305  energy(sigma->0) =     -179.20602090


--------------------------------------------------------------------------------------------------------




--------------------------------------- Iteration      1(  10)  ---------------------------------------


    POTLOK:  cpu time      0.0046: real time      0.0047
    SETDIJ:  cpu time      0.0018: real time      0.0018
     EDDAV:  cpu time     29.7704: real time     29.9091
       DOS:  cpu time      0.0047: real time      0.0048
    CHARGE:  cpu time      0.0801: real time      0.0803
    MIXING:  cpu time      0.0003: real time      0.0003
    --------------------------------------------
      LOOP:  cpu time     29.8618: real time     30.0010

 eigenvalue-minimisations  : 19768
 total energy-change (2. order) : 0.3796905E-01  (-0.2993793E-01)
 number of electron     196.9999818 magnetization 
 augmentation part       40.1479822 magnetization 

 Broyden mixing:
  rms(total) = 0.13570E+00    rms(broyden)= 0.13561E+00
  rms(prec ) = 0.18422E+00
  weight for this iteration     100.00

 eigenvalues of (default mixing * dielectric matrix)
  average eigenvalue GAMMA=   1.1876
  2.5919  1.7054  0.8264  0.3838  0.4307

 Free energy of the ion-electron system (eV)
  ---------------------------------------------------
  alpha Z        PSCENC =      1784.87351009
  Ewald energy   TEWEN  =    -19386.00805094
  -Hartree energ DENC   =     -3114.21136950
  -exchange      EXHF   =         0.00000000
  -V(xc)+E(xc)   XCENC  =       682.73458296
  PAW double counting   =     26671.08362384   -26405.64296382
  entropy T*S    EENTRO =        -0.00533610
  eigenvalues    EBANDS =     -2661.83559827
  atomic energy  EATOM  =     22249.84054204
  Solvation  Ediel_sol  =         0.00000000
  ---------------------------------------------------
  free energy    TOTEN  =      -179.17105971 eV

  energy without entropy =     -179.16572361  energy(sigma->0) =     -179.16839166


--------------------------------------------------------------------------------------------------------




--------------------------------------- Iteration      1(  11)  ---------------------------------------


    POTLOK:  cpu time      0.0045: real time      0.0047
    SETDIJ:  cpu time      0.0017: real time      0.0018
     EDDAV:  cpu time      3.5892: real time      3.6036
       DOS:  cpu time      0.0042: real time      0.0043
    CHARGE:  cpu time      0.0805: real time      0.0807
    MIXING:  cpu time      0.0004: real time      0.0004
    --------------------------------------------
      LOOP:  cpu time      3.6806: real time      3.6953

 eigenvalue-minimisations  : 20528
 total energy-change (2. order) :-0.2366848E-03  (-0.7490638E-02)
 number of electron     196.9999818 magnetization 
 augmentation part       40.1144113 magnetization 

 Broyden mixing:
  rms(total) = 0.40675E-01    rms(broyden)= 0.40615E-01
  rms(prec ) = 0.85894E-01
  weight for this iteration     100.00

 eigenvalues of (default mixing * dielectric matrix)
  average eigenvalue GAMMA=   1.1127
  2.5312  1.7199  0.8221  0.8221  0.4089  0.3723

 Free energy of the ion-electron system (eV)
  ---------------------------------------------------
  alpha Z        PSCENC =      1784.87351009
  Ewald energy   TEWEN  =    -19386.00805094
  -Hartree energ DENC   =     -3118.71681896
  -exchange      EXHF   =         0.00000000
  -V(xc)+E(xc)   XCENC  =       682.94171594
  PAW double counting   =     26904.86721883   -26636.86089840
  entropy T*S    EENTRO =        -0.00564013
  eigenvalues    EBANDS =     -2660.10287486
  atomic energy  EATOM  =     22249.84054204
  Solvation  Ediel_sol  =         0.00000000
  ---------------------------------------------------
  free energy    TOTEN  =      -179.17129639 eV

  energy without entropy =     -179.16565626  energy(sigma->0) =     -179.16847633


--------------------------------------------------------------------------------------------------------




--------------------------------------- Iteration      1(  12)  ---------------------------------------


    POTLOK:  cpu time      0.0044: real time      0.0047
    SETDIJ:  cpu time      0.0017: real time      0.0017
     EDDAV:  cpu time      3.6259: real time      3.6406
       DOS:  cpu time      0.0045: real time      0.0045
    CHARGE:  cpu time      0.0805: real time      0.0808
    MIXING:  cpu time      0.0004: real time      0.0004
    --------------------------------------------
[...]
     17     -25.8736      2.00000
     18     -25.7491      2.00000
     19     -25.4950      2.00000
     20     -25.4244      2.00000
     21     -25.3664      2.00000
     22     -25.3083      2.00000
     23     -25.2041      2.00000
     24     -25.1913      2.00000
     25     -25.1605      2.00000
     26     -25.1532      2.00000
     27     -25.1435      2.00000
     28     -25.1298      2.00000
     29     -25.1163      2.00000
     30     -25.0936      2.00000
     31     -25.0906      2.00000
     32     -25.0591      2.00000
     33     -25.0169      2.00000
     34     -25.0102      2.00000
     35     -24.9698      2.00000
     36     -24.8492      2.00000
     37     -24.7892      2.00000
     38     -24.7361      2.00000
     39     -24.6631      2.00000
     40     -22.0964      2.00000
     41     -22.0572      2.00000
     42     -21.9975      2.00000
     43     -21.9404      2.00000
     44     -21.8568      2.00000
     45     -21.8015      2.00000
     46     -21.7103      2.00000
     47     -21.7007      2.00000
     48     -21.6702      2.00000
     49     -21.6663      2.00000
     50     -21.6489      2.00000
     51     -21.6150      2.00000
     52     -21.5493      2.00000
     53     -21.5138      2.00000
     54     -21.4267      2.00000
     55     -21.4149      2.00000
     56     -21.3670      2.00000
     57     -21.3342      2.00000
     58       3.4754      2.00000
     59       3.9345      2.00000
     60       4.2059      2.00000
     61       4.5521      2.00000
     62       4.7433      2.00000
     63       5.1092      2.00000
     64       5.2378      2.00000
     65       5.7470      2.00000
     66       6.0640      2.00000
     67       6.1332      2.00000
     68       6.1562      2.00000
     69       6.2088      2.00000
     70       6.2476      2.00000
     71       6.3486      2.00000
     72       6.3742      2.00000
     73       6.4041      2.00000
     74       6.4519      2.00000
     75       6.4837      2.00000
     76       6.5883      2.00000
     77       6.6032      2.00000
     78       6.9403      2.00000
     79       6.9607      2.00000
     80       7.0563      2.00000
     81       7.0911      2.00000
     82       7.1154      2.00000
     83       7.1590      2.00000
     84       7.2081      2.00000
     85       7.2211      2.00000
     86       7.2409      2.00000
     87       7.2683      2.00000
     88       7.2846      2.00000
     89       7.3225      2.00000
     90       7.3743      2.00000
     91       7.4059      2.00000
     92       7.4314      2.00000
     93       7.4695      2.00000
     94       7.5145      2.00000
     95       7.5290      2.00000
     96       7.5607      2.00000
     97       7.5747      2.00000
     98       7.6068      2.00000
     99       7.6457      2.00000
    100       7.6888      2.00000
    101       7.7409      2.00000
    102       7.7698      2.00000
    103       7.8078      2.00000
    104       7.8406      2.00000
    105       8.2563      2.00000
    106      10.9298      0.00000
    107      11.0502      0.00000
    108      11.2245      0.00000
    109      11.3345      0.00000
    110      11.4492      0.00000
    111      11.4945      0.00000
    112      11.5479      0.00000
    113      11.6300      0.00000
    114      11.7584      0.00000
    115      11.8136      0.00000
    116      11.8645      0.00000
    117      11.9143      0.00000
    118      11.9911      0.00000
    119      12.0206      0.00000
    120      12.0799      0.00000

 k-point    63 :       0.4000   -0.4000    0.4000
  band No.  band energies     occupation 
      1     -64.7563      2.00000
      2     -51.7687      2.00000
      3     -51.6997      2.00000
      4     -45.6585      2.00000
      5     -45.6264      2.00000
      6     -45.5963      2.00000
      7     -45.5411      2.00000
      8     -45.5373      2.00000
      9     -45.5057      2.00000
     10     -29.0053      2.00000
     11     -28.9894      2.00000
     12     -28.9834      2.00000
     13     -26.0480      2.00000
     14     -25.9455      2.00000
     15     -25.9151      2.00000
     16     -25.8949      2.00000
     17     -25.8739      2.00000
     18     -25.7495      2.00000
     19     -25.4540      2.00000
     20     -25.4217      2.00000
     21     -25.4066      2.00000
     22     -25.3174      2.00000
     23     -25.2400      2.00000
     24     -25.1935      2.00000
     25     -25.1681      2.00000
     26     -25.1394      2.00000
     27     -25.1346      2.00000
     28     -25.1244      2.00000
     29     -25.1117      2.00000
     30     -25.0983      2.00000
     31     -25.0928      2.00000
     32     -25.0621      2.00000
     33     -25.0181      2.00000
     34     -25.0126      2.00000
     35     -24.9232      2.00000
     36     -24.8346      2.00000
     37     -24.7754      2.00000
     38     -24.7377      2.00000
     39     -24.7037      2.00000
     40     -22.0983      2.00000
     41     -22.0603      2.00000
     42     -21.9975      2.00000
     43     -21.9409      2.00000
     44     -21.8567      2.00000
     45     -21.8025      2.00000
     46     -21.7109      2.00000
     47     -21.6969      2.00000
     48     -21.6683      2.00000
     49     -21.6598      2.00000
     50     -21.6464      2.00000
     51     -21.6149      2.00000
     52     -21.5493      2.00000
     53     -21.5148      2.00000
     54     -21.4269      2.00000
     55     -21.4163      2.00000
     56     -21.3702      2.00000
     57     -21.3360      2.00000
     58       3.4338      2.00000
     59       4.0841      2.00000
     60       4.1583      2.00000
     61       4.4832      2.00000
     62       4.8186      2.00000
     63       5.0009      2.00000
     64       5.2227      2.00000
     65       5.7791      2.00000
     66       6.0991      2.00000
     67       6.1209      2.00000
     68       6.1734      2.00000
     69       6.1898      2.00000
     70       6.2640      2.00000
     71       6.3210      2.00000
     72       6.4103      2.00000
     73       6.4333      2.00000
     74       6.4430      2.00000
     75       6.4923      2.00000
     76       6.5552      2.00000
     77       6.5801      2.00000
     78       6.8979      2.00000
     79       6.9610      2.00000
     80       7.0493      2.00000
     81       7.0995      2.00000
     82       7.1428      2.00000
     83       7.1523      2.00000
     84       7.2032      2.00000
     85       7.2250      2.00000
     86       7.2557      2.00000
     87       7.2712      2.00000
     88       7.3233      2.00000
     89       7.3461      2.00000
     90       7.3593      2.00000
     91       7.4079      2.00000
     92       7.4457      2.00000
     93       7.4700      2.00000
     94       7.4802      2.00000
     95       7.5272      2.00000
     96       7.5326      2.00000
     97       7.5837      2.00000
     98       7.6026      2.00000
     99       7.6487      2.00000
    100       7.6972      2.00000
    101       7.7474      2.00000
    102       7.7794      2.00000
    103       7.7994      2.00000
    104       7.8323      2.00000
    105       8.2501      2.00000
    106      10.9516      0.00000
    107      11.0426      0.00000
    108      11.2230      0.00000
    109      11.3475      0.00000
    110      11.4583      0.00000
    111      11.4714      0.00000
    112      11.5887      0.00000
    113      11.6354      0.00000
    114      11.7463      0.00000
    115      11.7753      0.00000
    116      11.8211      0.00000
    117      11.8708      0.00000
    118      11.9401      0.00000
    119      12.0129      0.00000
    120      12.0835      0.00000


--------------------------------------------------------------------------------------------------------


 soft charge-density along one line, spin component           1
         0         1         2         3         4         5         6         7         8         9
 total charge-density along one line
 
 pseudopotential strength for first ion, spin component:           1
  5.789 -20.582  -0.002  -0.000  -0.000   0.004   0.000   0.001
-20.582   9.472  -0.003  -0.000  -0.000   0.000   0.000   0.000
 -0.002  -0.003  -9.967   0.001  -0.002   6.250  -0.001   0.003
 -0.000  -0.000   0.001  -9.965  -0.001  -0.001   6.248   0.001
 -0.000  -0.000  -0.002  -0.001  -9.966   0.003   0.001   6.249
  0.004   0.000   6.250  -0.001   0.003   7.785   0.000  -0.002
  0.000   0.000  -0.001   6.248   0.001   0.000   7.786  -0.001
  0.001   0.000   0.003   0.001   6.249  -0.002  -0.001   7.785
 -0.002  -0.001  -0.000  -0.000  -0.002   0.000   0.001   0.003
  0.000   0.000  -0.000  -0.002  -0.000   0.000   0.003   0.001
  0.001   0.000   0.001  -0.000   0.000  -0.001   0.000  -0.000
 -0.001  -0.000  -0.000  -0.000  -0.000   0.001   0.000   0.000
  0.000   0.000   0.001   0.000  -0.000  -0.002  -0.000   0.000
 -0.002  -0.001  -0.000  -0.000  -0.002   0.000   0.001   0.003
  0.001   0.000  -0.000  -0.002  -0.000   0.000   0.003   0.001
  0.001   0.001   0.001  -0.000   0.000  -0.001   0.000  -0.000
 -0.001  -0.000  -0.000  -0.000  -0.000   0.001   0.000   0.000
  0.001   0.000   0.002   0.000  -0.000  -0.002  -0.000   0.000
 total augmentation occupancy for first ion, spin component:           1
  1.995  -0.045   0.000  -0.000  -0.000   0.000  -0.000  -0.000  -0.002  -0.000   0.003  -0.007  -0.000   0.002  -0.000  -0.002
 -0.045   1.349   0.002  -0.001  -0.001   0.002   0.001   0.001  -0.035   0.016   0.009  -0.031   0.000   0.025  -0.013  -0.005
  0.000   0.002   1.996   0.000  -0.000  -0.028  -0.000   0.000  -0.002  -0.003   0.002   0.009   0.002   0.001   0.002  -0.001
 -0.000  -0.001   0.000   1.996   0.000  -0.000  -0.027  -0.001   0.009   0.007  -0.002  -0.003   0.000  -0.006  -0.004   0.001
 -0.000  -0.001  -0.000   0.000   1.996   0.000  -0.001  -0.029   0.006   0.009   0.001  -0.002  -0.001  -0.004  -0.006  -0.000
  0.000   0.002  -0.028  -0.000   0.000   0.067   0.000  -0.001   0.005   0.005  -0.005  -0.013  -0.008  -0.002  -0.003   0.002
 -0.000   0.001  -0.000  -0.027  -0.001   0.000   0.065   0.002  -0.013  -0.006   0.001   0.006  -0.000   0.007   0.005  -0.001
 -0.000   0.001   0.000  -0.001  -0.029  -0.001   0.002   0.068  -0.004  -0.013  -0.000   0.004   0.001   0.004   0.007   0.000
 -0.002  -0.035  -0.002   0.009   0.006   0.005  -0.013  -0.004   3.306  -0.018   0.010   0.052  -0.001  -1.390   0.004  -0.006
 -0.000   0.016  -0.003   0.007   0.009   0.005  -0.006  -0.013  -0.018   3.343   0.002  -0.119   0.004   0.004  -1.404  -0.000
  0.003   0.009   0.002  -0.002   0.001  -0.005   0.001  -0.000   0.010   0.002   2.832  -0.028  -0.002  -0.006  -0.001  -1.286
 -0.007  -0.031   0.009  -0.003  -0.002  -0.013   0.006   0.004   0.052  -0.119  -0.028   3.334  -0.054  -0.031   0.066   0.013
 -0.000   0.000   0.002   0.000  -0.001  -0.008  -0.000   0.001  -0.001   0.004  -0.002  -0.054   2.773   0.001  -0.002   0.000
  0.002   0.025   0.001  -0.006  -0.004  -0.002   0.007   0.004  -1.390   0.004  -0.006  -0.031   0.001   0.595  -0.001   0.003
 -0.000  -0.013   0.002  -0.004  -0.006  -0.003   0.005   0.007   0.004  -1.404  -0.001   0.066  -0.002  -0.001   0.601   0.000
 -0.002  -0.005  -0.001   0.001  -0.000   0.002  -0.001   0.000  -0.006  -0.000  -1.286   0.013   0.000   0.003   0.000   0.591
  0.006   0.013  -0.006   0.001   0.001   0.007  -0.003  -0.002  -0.031   0.066   0.013  -1.400   0.024   0.017  -0.035  -0.006
  0.000   0.001  -0.002  -0.000   0.001   0.003   0.000  -0.000   0.000  -0.002   0.000   0.024  -1.263  -0.000   0.001  -0.000


------------------------ aborting loop because EDIFF is reached ----------------------------------------


    CHARGE:  cpu time      0.0847: real time      0.0849
    FORLOC:  cpu time      0.0005: real time      0.0005
    FORNL :  cpu time      0.7706: real time      0.7727
    STRESS:  cpu time      0.9476: real time      0.9505
    FORCOR:  cpu time      0.0044: real time      0.0045
    FORHAR:  cpu time      0.0015: real time      0.0015
    MIXING:  cpu time      0.0007: real time      0.0007
    OFIELD:  cpu time      0.0000: real time      0.0000

  FORCE on cell =-STRESS in cart. coord.  units (eV):
  Direction    XX          YY          ZZ          XY          YZ          ZX
  --------------------------------------------------------------------------------------
  Alpha Z  1784.87351  1784.87351  1784.87351
  Ewald   -6498.12084 -6435.18443 -6452.76431     4.21537   -12.64610   -18.96915
  Hartree  1003.78662  1066.47477  1048.97082     3.63222   -11.81812   -17.73395
  E(xc)    -884.09044  -884.10006  -884.05990    -0.00745     0.02150     0.03983
  Local    1550.11496  1423.85943  1458.72536    -7.75421    24.03020    34.65078
  n-local  -469.19130  -467.18426  -469.43228    -0.12729    -0.22648     0.30090
  augment   397.11301   397.03352   397.18240     0.10133     0.07489     0.31594
  Kinetic  3105.41870  3104.52977  3106.34196    -0.40838     0.48959     0.51757
  Fock        0.00000     0.00000     0.00000     0.00000     0.00000     0.00000
  -------------------------------------------------------------------------------------
  Total     -10.09577    -9.69776   -10.16244    -0.34841    -0.07452    -0.87807
  in kB     -56.77697   -54.53864   -57.15192    -1.95942    -0.41907    -4.93815
  external pressure =      -56.16 kB  Pullay stress =        0.00 kB


 VOLUME and BASIS-vectors are now :
 -----------------------------------------------------------------------------
  energy-cutoff  :      250.00
  volume of cell :      284.89
      direct lattice vectors                 reciprocal lattice vectors
     6.580000000  0.000000000  0.000000000     0.151975684  0.000000000  0.000000000
     0.000000000  6.580000000  0.000000000     0.000000000  0.151975684  0.000000000
     0.000000000  0.000000000  6.580000000     0.000000000  0.000000000  0.151975684

  length of vectors
     6.580000000  6.580000000  6.580000000     0.151975684  0.151975684  0.151975684


 FORCES acting on ions
    electron-ion (+dipol)            ewald-force                    non-local-force                 convergence-correction
 -----------------------------------------------------------------------------------------------
   0.342E-01 -.209E+02 0.864E-01   0.142E-12 0.204E+02 0.284E-13   -.699E-01 0.133E+00 -.103E+00   -.163E-04 0.764E-04 0.115E-03
   -.715E+02 -.993E+01 -.308E+02   0.714E+02 0.102E+02 0.306E+02   -.228E+00 -.114E+00 -.607E-01   0.152E-04 -.411E-03 0.121E-03
   0.716E+02 0.994E+01 0.309E+02   -.714E+02 -.102E+02 -.306E+02   0.164E+00 0.113E+00 0.170E-01   -.232E-05 0.362E-03 -.411E-04
   -.716E+02 -.996E+01 0.308E+02   0.714E+02 0.102E+02 -.306E+02   -.144E+00 -.112E+00 0.231E-01   0.472E-04 -.375E-03 -.125E-03
   0.486E-01 -.210E+02 -.805E-01   0.284E-13 0.204E+02 -.284E-13   -.883E-01 0.194E+00 0.109E+00   -.380E-04 0.388E-04 -.121E-03
   0.715E+02 -.994E+01 -.308E+02   -.714E+02 0.102E+02 0.306E+02   0.195E+00 -.131E+00 -.337E-01   -.246E-04 -.339E-03 0.641E-04
   0.768E+02 0.108E+02 -.330E+02   -.769E+02 -.110E+02 0.329E+02   0.197E+00 0.345E-01 -.783E-01   0.194E-04 0.334E-03 0.482E-04
   0.763E-01 0.224E+02 -.107E+00   -.853E-13 -.220E+02 -.568E-13   -.645E-01 -.677E-01 0.898E-01   -.626E-04 -.529E-04 -.129E-03
   -.607E+02 0.834E+01 -.262E+02   0.604E+02 -.863E+01 0.259E+02   -.145E+00 0.616E-01 -.327E-01   -.533E-05 0.314E-03 0.343E-04
   0.270E-01 0.178E+02 0.389E-01   -.568E-13 -.173E+02 0.000E+00   -.546E-01 -.675E-01 -.715E-01   -.361E-04 -.158E-04 0.125E-03
   -.211E-01 -.178E+02 -.463E-01   -.568E-13 0.173E+02 -.142E-13   0.442E-01 -.102E-01 0.733E-01   0.366E-04 0.322E-04 -.147E-03
   -.937E-02 0.178E+02 -.586E-01   -.711E-13 -.173E+02 0.142E-13   0.541E-01 -.347E-01 0.665E-01   0.505E-04 -.334E-04 -.124E-03
   -.140E-01 -.178E+02 0.632E-01   -.568E-13 0.173E+02 0.000E+00   0.247E-01 0.174E-01 -.765E-01   0.179E-04 0.128E-03 0.141E-03
   0.605E+02 -.835E+01 0.261E+02   -.604E+02 0.863E+01 -.259E+02   0.250E+00 -.321E-01 0.112E+00   -.469E-04 -.324E-03 -.638E-04
   -.292E-01 0.177E+02 0.724E-01   -.426E-13 -.173E+02 -.142E-13   0.446E-01 0.361E-01 -.707E-01   0.484E-04 -.118E-03 0.136E-03
   -.769E+02 0.108E+02 0.331E+02   0.769E+02 -.110E+02 -.329E+02   -.114E+00 -.399E-01 0.754E-01   0.126E-04 0.389E-03 -.327E-04
 -----------------------------------------------------------------------------------------------
   -.654E-01 0.185E-01 -.387E-01   0.227E-12 0.782E-13 -.284E-13   0.654E-01 -.186E-01 0.388E-01   0.158E-04 0.655E-05 0.217E-05
 
 
 POSITION                                       TOTAL-FORCE (eV/Angst)
 -----------------------------------------------------------------------------------
      3.29000      0.00000      3.29000        -0.035749     -0.389543     -0.016348
      4.93500      1.64500      1.64500        -0.380875      0.157013     -0.286683
      1.64500      4.93500      4.93500         0.393943     -0.139565      0.284434
      4.93500      1.64500      4.93500        -0.322045      0.124989      0.227734
      3.29000      0.00000      0.00000        -0.039723     -0.368839      0.028020
      1.64500      1.64500      1.64500         0.343038      0.129844     -0.234544
      1.64500      4.93500      1.64500         0.146224     -0.158972     -0.164308
      3.29000      3.29000      0.00000         0.011723      0.330694     -0.016999
      4.93500      4.93500      1.64500        -0.398411     -0.223258     -0.311574
      3.29000      3.29000      3.29000        -0.027613      0.487913     -0.032456
      0.00000      0.00000      0.00000         0.023116     -0.511567      0.026821
      0.00000      3.29000      0.00000         0.044763      0.495743      0.007744
      0.00000      0.00000      3.29000         0.010729     -0.484205     -0.013152
      1.64500      1.64500      4.93500         0.386637      0.245639      0.313157
      0.00000      3.29000      3.29000         0.015495      0.512952      0.001799
      4.93500      4.93500      4.93500        -0.171252     -0.208837      0.186355
 -----------------------------------------------------------------------------------
    total drift:                                0.000071     -0.000078      0.000012


--------------------------------------------------------------------------------------------------------



  FREE ENERGIE OF THE ION-ELECTRON SYSTEM (eV)
  ---------------------------------------------------
  free  energy   TOTEN  =      -179.16816035 eV

  energy  without entropy=     -179.16254052  energy(sigma->0) =     -179.16535043
 


--------------------------------------------------------------------------------------------------------


    POTLOK:  cpu time      0.0060: real time      0.0060


--------------------------------------------------------------------------------------------------------


     LOOP+:  cpu time    106.9596: real time    108.1267
    4ORBIT:  cpu time      0.0001: real time      0.0000

 total amount of memory used by VASP MPI-rank0    47721. kBytes
=======================================================================

   base      :      30000. kBytes
   nonl-proj :       8332. kBytes
   fftplans  :        456. kBytes
   grid      :        919. kBytes
   one-center:         31. kBytes
   wavefun   :       7983. kBytes
 
  
  
 General timing and accounting informations for this job:
 ========================================================
  
                  Total CPU time used (sec):      110.313
                            User time (sec):      108.571
                          System time (sec):        1.742
                         Elapsed time (sec):      113.016
  
                   Maximum memory used (kb):       89340.
                   Average memory used (kb):          N/A
  
                          Minor page faults:         8408
                          Major page faults:            0
                 Voluntary context switches:          240
