 vasp.6.3.1 04May22 (build Jul 26 2022 04:02:40) complex                        
  
 executed on             LinuxIFC date 2023.11.30  02:37:09
 running on   48 total cores
 distrk:  each k-point on   48 cores,    1 groups
 distr:  one band on NCORE=  12 cores,    4 groups


--------------------------------------------------------------------------------------------------------


 INCAR:
   ISTART = 0
   NWRITE = 2
   PREC = Accurate
   ENCUT = 250
   GGA = PE
   NSW = 0
   ISIF = 2
   ISYM = 2
   NBLOCK = 1
   KBLOCK = 1
   IBRION = -1
   NELM = 80
   EDIFF = 1E-08
   EDIFFG = -0.01
   ALGO = Normal
   LDIAG = .TRUE.
   LREAL = .FALSE.
   ISMEAR = 0
   SIGMA = 0.02
   ICHARG = 2
   LPLANE = .TRUE.
   NPAR = 4
   LSCALU = .FALSE.
   NSIM = 4
   LWAVE = .FALSE.
   LCHARG = .FALSE.
   ICORELEVEL = 1

 POTCAR:    PAW_PBE Nb_sv 25May2007               
 POTCAR:    PAW_PBE Mo_sv 02Feb2006               
 POTCAR:    PAW_PBE Ta_pv 07Sep2000               
 POTCAR:    PAW_PBE W_sv 04Sep2015                
 POTCAR:    PAW_PBE Nb_sv 25May2007               
   SHA256 =  0e8fc07c9fcd1164cf2ade22d0399fd28f85e91cd773dfa6cf24839a48c95e24 Nb_sv/POTCAR          
   COPYR  = (c) Copyright 25May2007 Georg Kresse                                                    
   COPYR  = This file is part of the software VASP. Any use, copying, and all other rights are regul
   COPYR  = If you do not have a valid VASP license, you may not use, copy or distribute this file. 
   VRHFIN =Nb: 4p5s4d                                                                               
   LEXCH  = PE                                                                                      
   EATOM  =  1555.1913 eV,  114.3033 Ry                                                             
                                                                                                    
   TITEL  = PAW_PBE Nb_sv 25May2007                                                                 
   LULTRA =        F    use ultrasoft PP ?                                                          
   IUNSCR =        1    unscreen: 0-lin 1-nonlin 2-no                                               
   RPACOR =    1.800    partial core radius                                                         
   POMASS =   92.910; ZVAL   =   13.000    mass and valenz                                          
   RCORE  =    2.400    outmost cutoff radius                                                       
   RWIGS  =    2.400; RWIGS  =    1.270    wigner-seitz radius (au A)                               
   ENMAX  =  293.235; ENMIN  =  219.927 eV                                                          
   ICORE  =        3    local potential                                                             
   LCOR   =        T    correct aug charges                                                         
   LPAW   =        T    paw PP                                                                      
   EAUG   =  455.659                                                                                
   DEXC   =    0.000                                                                                
   RMAX   =    2.456    core radius for proj-oper                                                   
   RAUG   =    1.300    factor for augmentation sphere                                              
   RDEP   =    2.451    radius for radial grids                                                     
   RDEPT  =    1.956    core radius for aug-charge                                                  
                                                                                                    
   Atomic configuration                                                                             
   11 entries                                                                                       
     n  l   j            E        occ.                                                              
     1  0  0.50    -18805.2457   2.0000                                                             
     2  0  0.50     -2630.2869   2.0000                                                             
     2  1  1.50     -2348.4046   6.0000                                                             
     3  0  0.50      -438.8757   2.0000                                                             
     3  1  1.50      -346.7588   6.0000                                                             
     3  2  2.50      -196.2560  10.0000                                                             
     4  0  0.50       -58.3859   2.0000                                                             
     5  0  0.50        -3.9816   1.0000                                                             
     4  1  1.50       -34.5141   6.0000                                                             
     4  2  2.50        -3.0408   4.0000                                                             
     4  3  2.50        -1.3606   0.0000                                                             
   Description                                                                                      
     l       E           TYP  RCUT    TYP  RCUT                                                     
     0    -58.3859094     23  2.200                                                                 
     0     -3.9816262     23  2.200                                                                 
     1    -34.5140738     23  2.200                                                                 
     1     13.6058260     23  2.200                                                                 
     2     -3.0408010     23  2.200                                                                 
     2     -0.1283038     23  2.200                                                                 
     3     -1.3605826     23  2.400                                                                 
  local pseudopotential read in
  partial core-charges read in
  partial kinetic energy density read in
  atomic valenz-charges read in
  non local Contribution for L=           0  read in
    real space projection operators read in
  non local Contribution for L=           0  read in
    real space projection operators read in
  non local Contribution for L=           1  read in
    real space projection operators read in
  non local Contribution for L=           1  read in
    real space projection operators read in
  non local Contribution for L=           2  read in
    real space projection operators read in
  non local Contribution for L=           2  read in
    real space projection operators read in
    PAW grid and wavefunctions read in
 
   number of l-projection  operators is LMAX  =           6
   number of lm-projection operators is LMMAX =          18
 
 POTCAR:    PAW_PBE Mo_sv 02Feb2006               
   SHA256 =  2731df97e41766cc617548c5a8267718fdef1f509ac6bafa01e745abea2bdfaa Mo_sv/POTCAR          
   COPYR  = (c) Copyright 02Feb2006 Georg Kresse                                                    
   COPYR  = This file is part of the software VASP. Any use, copying, and all other rights are regul
   COPYR  = If you do not have a valid VASP license, you may not use, copy or distribute this file. 
   VRHFIN =Mo: 4p5s4d                                                                               
   LEXCH  = PE                                                                                      
   EATOM  =  1862.2866 eV,  136.8742 Ry                                                             
                                                                                                    
   TITEL  = PAW_PBE Mo_sv 02Feb2006                                                                 
   LULTRA =        F    use ultrasoft PP ?                                                          
   IUNSCR =        1    unscreen: 0-lin 1-nonlin 2-no                                               
   RPACOR =    2.200    partial core radius                                                         
   POMASS =   95.940; ZVAL   =   14.000    mass and valenz                                          
   RCORE  =    2.500    outmost cutoff radius                                                       
   RWIGS  =    2.750; RWIGS  =    1.455    wigner-seitz radius (au A)                               
   ENMAX  =  242.676; ENMIN  =  182.007 eV                                                          
   ICORE  =        3    local potential                                                             
   LCOR   =        T    correct aug charges                                                         
   LPAW   =        T    paw PP                                                                      
   EAUG   =  446.014                                                                                
   DEXC   =    0.000                                                                                
   RMAX   =    2.563    core radius for proj-oper                                                   
   RAUG   =    1.300    factor for augmentation sphere                                              
   RDEP   =    2.641    radius for radial grids                                                     
   RDEPT  =    2.031    core radius for aug-charge                                                  
                                                                                                    
   Atomic configuration                                                                             
   11 entries                                                                                       
     n  l   j            E        occ.                                                              
     1  0  0.50    -19819.0341   2.0000                                                             
     2  0  0.50     -2799.0127   2.0000                                                             
     2  1  1.50     -2502.0276   6.0000                                                             
     3  0  0.50      -476.4449   2.0000                                                             
     3  1  1.50      -379.1496   6.0000                                                             
     3  2  2.50      -220.9367  10.0000                                                             
     4  0  0.50       -64.3378   2.0000                                                             
     5  0  0.50        -4.0862   1.0000                                                             
     4  1  1.50       -38.4773   6.0000                                                             
     4  2  2.50        -3.7535   5.0000                                                             
     4  3  2.50        -1.3606   0.0000                                                             
   Description                                                                                      
     l       E           TYP  RCUT    TYP  RCUT                                                     
     0    -64.3377829     23  2.100                                                                 
     0     -4.0861640     23  2.400                                                                 
     1    -38.4772993     23  2.100                                                                 
     1     13.6058260     23  2.100                                                                 
     2     -3.7534941     23  2.400                                                                 
     2     -5.1140767     23  2.400                                                                 
     3     -4.0817478     23  2.500                                                                 
  local pseudopotential read in
  partial core-charges read in
  partial kinetic energy density read in
  atomic valenz-charges read in
  non local Contribution for L=           0  read in
    real space projection operators read in
  non local Contribution for L=           0  read in
    real space projection operators read in
  non local Contribution for L=           1  read in
    real space projection operators read in
  non local Contribution for L=           1  read in
    real space projection operators read in
  non local Contribution for L=           2  read in
    real space projection operators read in
  non local Contribution for L=           2  read in
    real space projection operators read in
    PAW grid and wavefunctions read in
 
   number of l-projection  operators is LMAX  =           6
   number of lm-projection operators is LMMAX =          18
 
 POTCAR:    PAW_PBE Ta_pv 07Sep2000               
   SHA256 =  00d0a14a36c127416459414afb8617d9754996fffa60a2465888e660b20a452f Ta_pv/POTCAR          
   COPYR  = (c) Copyright 07Sep2000 Georg Kresse                                                    
   COPYR  = This file is part of the software VASP. Any use, copying, and all other rights are regul
   COPYR  = If you do not have a valid VASP license, you may not use, copy or distribute this file. 
   VRHFIN =Ta:  5p6s5d                                                                              
   LEXCH  = PE                                                                                      
   EATOM  =  1047.1984 eV,   76.9669 Ry                                                             
                                                                                                    
   TITEL  = PAW_PBE Ta_pv 07Sep2000                                                                 
   LULTRA =        F    use ultrasoft PP ?                                                          
   IUNSCR =        1    unscreen: 0-lin 1-nonlin 2-no                                               
   RPACOR =    2.330    partial core radius                                                         
   POMASS =  180.948; ZVAL   =   11.000    mass and valenz                                          
   RCORE  =    2.500    outmost cutoff radius                                                       
   RWIGS  =    2.840; RWIGS  =    1.503    wigner-seitz radius (au A)                               
   ENMAX  =  223.667; ENMIN  =  167.750 eV                                                          
   RCLOC  =    2.205    cutoff for local pot                                                        
   LCOR   =        T    correct aug charges                                                         
   LPAW   =        T    paw PP                                                                      
   EAUG   =  377.421                                                                                
   DEXC   =    0.000                                                                                
   RMAX   =    2.551    core radius for proj-oper                                                   
   RAUG   =    1.300    factor for augmentation sphere                                              
   RDEP   =    2.526    radius for radial grids                                                     
   RDEPT  =    2.132    core radius for aug-charge                                                  
                                                                                                    
   Atomic configuration                                                                             
   15 entries                                                                                       
     n  l   j            E        occ.                                                              
     1  0  0.50    -67341.2801   2.0000                                                             
     2  0  0.50    -11566.9369   2.0000                                                             
     2  1  1.50    -10134.1175   6.0000                                                             
     3  0  0.50     -2648.5614   2.0000                                                             
     3  1  1.50     -2222.6006   6.0000                                                             
     3  2  2.50     -1726.3114  10.0000                                                             
     4  0  0.50      -538.6957   2.0000                                                             
     4  1  1.50      -399.0125   6.0000                                                             
     4  2  2.50      -220.3955  10.0000                                                             
     4  3  3.50       -23.0371  14.0000                                                             
     5  0  0.50       -71.2900   2.0000                                                             
     5  1  1.50       -37.8224   6.0000                                                             
     5  2  2.50        -2.6455   4.0000                                                             
     6  0  0.50        -4.9623   1.0000                                                             
     5  3  2.50        -1.3606   0.0000                                                             
   Description                                                                                      
     l       E           TYP  RCUT    TYP  RCUT                                                     
     1    -37.8224449     23  2.500                                                                 
     1      1.3605826     23  2.500                                                                 
     2     -2.6454718     23  2.500                                                                 
     2     -0.6258570     23  2.500                                                                 
     0     -4.9622674     23  2.500                                                                 
     0      4.7531427     23  2.500                                                                 
  local pseudopotential read in
  partial core-charges read in
  partial kinetic energy density read in
  atomic valenz-charges read in
  non local Contribution for L=           1  read in
    real space projection operators read in
  non local Contribution for L=           1  read in
    real space projection operators read in
  non local Contribution for L=           2  read in
    real space projection operators read in
  non local Contribution for L=           2  read in
    real space projection operators read in
  non local Contribution for L=           0  read in
    real space projection operators read in
  non local Contribution for L=           0  read in
    real space projection operators read in
    PAW grid and wavefunctions read in
 
   number of l-projection  operators is LMAX  =           6
   number of lm-projection operators is LMMAX =          18
 
 POTCAR:    PAW_PBE W_sv 04Sep2015                
   SHA256 =  931c2d770f65867ef30f3db3421922900fc0890ebac5c3e12f63b6a2064023d7 W_sv/POTCAR           
   COPYR  = (c) Copyright 04Sep2015 Georg Kresse                                                    
   COPYR  = This file is part of the software VASP. Any use, copying, and all other rights are regul
   COPYR  = If you do not have a valid VASP license, you may not use, copy or distribute this file. 
   VRHFIN =W : 5p6s5d                                                                               
   LEXCH  = PE                                                                                      
   EATOM  =  1865.5791 eV,  137.1162 Ry                                                             
                                                                                                    
   TITEL  = PAW_PBE W_sv 04Sep2015                                                                  
   LULTRA =        F    use ultrasoft PP ?                                                          
   IUNSCR =        1    unscreen: 0-lin 1-nonlin 2-no                                               
   RPACOR =    2.330    partial core radius                                                         
   POMASS =  183.850; ZVAL   =   14.000    mass and valenz                                          
   RCORE  =    2.500    outmost cutoff radius                                                       
   RWIGS  =    2.750; RWIGS  =    1.455    wigner-seitz radius (au A)                               
   ENMAX  =  223.057; ENMIN  =  167.293 eV                                                          
   ICORE  =        3    local potential                                                             
   LCOR   =        T    correct aug charges                                                         
   LPAW   =        T    paw PP                                                                      
   EAUG   =  373.438                                                                                
   DEXC   =    0.000                                                                                
   RMAX   =    2.565    core radius for proj-oper                                                   
   RAUG   =    1.300    factor for augmentation sphere                                              
   RDEP   =    2.539    radius for radial grids                                                     
   RDEPT  =    2.126    core radius for aug-charge                                                  
                                                                                                    
   Atomic configuration                                                                             
   15 entries                                                                                       
     n  l   j            E        occ.                                                              
     1  0  0.50    -69465.5834   2.0000                                                             
     2  0  0.50    -11986.2640   2.0000                                                             
     2  1  1.50    -10479.8613   6.0000                                                             
     3  0  0.50     -2759.0756   2.0000                                                             
     3  1  1.50     -2313.1855   6.0000                                                             
     3  2  2.50     -1801.1183  10.0000                                                             
     4  0  0.50      -567.6789   2.0000                                                             
     4  1  1.50      -421.4692   6.0000                                                             
     4  2  2.50      -236.3471  10.0000                                                             
     4  3  3.50       -31.2665  14.0000                                                             
     5  0  0.50       -77.1084   2.0000                                                             
     6  0  0.50        -5.1438   1.0000                                                             
     5  1  1.50       -41.3856   6.0000                                                             
     5  2  2.50        -3.3185   5.0000                                                             
     5  3  2.50        -1.3606   0.0000                                                             
   Description                                                                                      
     l       E           TYP  RCUT    TYP  RCUT                                                     
     0    -77.1084470     23  2.100                                                                 
     0     -5.1437956     23  2.300                                                                 
     1    -41.3855615     23  2.500                                                                 
     1     -2.7211652     23  2.500                                                                 
     2     -3.3185025     23  2.500                                                                 
     2     -1.5965151     23  2.500                                                                 
     3     -1.3605826     23  2.500                                                                 
  local pseudopotential read in
  partial core-charges read in
  partial kinetic energy density read in
  kinetic energy density of atom read in
  atomic valenz-charges read in
  non local Contribution for L=           0  read in
    real space projection operators read in
  non local Contribution for L=           0  read in
    real space projection operators read in
  non local Contribution for L=           1  read in
    real space projection operators read in
  non local Contribution for L=           1  read in
    real space projection operators read in
  non local Contribution for L=           2  read in
    real space projection operators read in
  non local Contribution for L=           2  read in
    real space projection operators read in
    PAW grid and wavefunctions read in
 
   number of l-projection  operators is LMAX  =           6
   number of lm-projection operators is LMMAX =          18
 
  PAW_PBE Nb_sv 25May2007               :
 energy of atom  1       EATOM=-1555.1913
 kinetic energy error for atom=    0.2155 (will be added to EATOM!!)
  PAW_PBE Mo_sv 02Feb2006               :
 energy of atom  2       EATOM=-1862.2866
 kinetic energy error for atom=    0.1102 (will be added to EATOM!!)
  PAW_PBE Ta_pv 07Sep2000               :
 energy of atom  3       EATOM=-1047.1984
 kinetic energy error for atom=    0.0394 (will be added to EATOM!!)
  PAW_PBE W_sv 04Sep2015                :
 energy of atom  4       EATOM=-1865.5791
 kinetic energy error for atom=    0.0589 (will be added to EATOM!!)
 
 
 POSCAR: Nb-Mo-Ta-W alloy
  positions in direct lattice
  No initial velocities read in
 exchange correlation table for  LEXCH =        8
   RHO(1)=    0.500       N(1)  =     2000
   RHO(2)=  100.500       N(2)  =     4000
 


--------------------------------------------------------------------------------------------------------


 ion  position               nearest neighbor table
   1  0.000  0.500  0.000-   2 2.85   3 2.85   5 2.85   7 2.85  10 2.85  11 2.85  14 2.85  15 2.85

   2  0.250  0.750  0.750-   1 2.85   4 2.85   6 2.85   8 2.85   9 2.85  12 2.85  13 2.85  16 2.85
                            11 3.29  10 3.29  10 3.29  11 3.29
   3  0.750  0.750  0.250-   1 2.85   4 2.85   6 2.85   8 2.85   9 2.85  12 2.85  13 2.85  16 2.85
                            11 3.29  11 3.29
   4  0.000  0.000  0.500-   2 2.85   3 2.85   5 2.85   7 2.85  10 2.85  11 2.85  14 2.85  15 2.85

   5  0.750  0.250  0.250-   1 2.85   4 2.85   6 2.85   8 2.85   9 2.85  12 2.85  13 2.85  16 2.85

   6  0.500  0.500  0.500-   2 2.85   3 2.85   5 2.85   7 2.85  10 2.85  11 2.85  14 2.85  15 2.85

   7  0.750  0.250  0.750-   1 2.85   4 2.85   6 2.85   8 2.85   9 2.85  12 2.85  13 2.85  16 2.85
                            11 3.29  10 3.29  11 3.29  10 3.29
   8  0.000  0.000  0.000-   2 2.85   3 2.85   5 2.85   7 2.85  10 2.85  11 2.85  14 2.85  15 2.85
                             9 3.29   9 3.29
   9  0.500  0.000  0.000-   2 2.85   3 2.85   5 2.85   7 2.85  10 2.85  11 2.85  14 2.85  15 2.85
                             8 3.29  12 3.29  16 3.29  16 3.29  12 3.29   8 3.29
  10  0.250  0.250  0.750-   1 2.85   4 2.85   6 2.85   8 2.85   9 2.85  12 2.85  13 2.85  16 2.85
                             7 3.29  15 3.29   2 3.29  15 3.29   2 3.29   7 3.29
  11  0.750  0.750  0.750-   1 2.85   4 2.85   6 2.85   8 2.85   9 2.85  12 2.85  13 2.85  16 2.85
                             7 3.29   2 3.29   3 3.29   3 3.29   7 3.29   2 3.29
  12  0.500  0.500  0.000-   2 2.85   3 2.85   5 2.85   7 2.85  10 2.85  11 2.85  14 2.85  15 2.85
                             9 3.29   9 3.29
  13  0.000  0.500  0.500-   2 2.85   3 2.85   5 2.85   7 2.85  10 2.85  11 2.85  14 2.85  15 2.85

  14  0.250  0.750  0.250-   1 2.85   4 2.85   6 2.85   8 2.85   9 2.85  12 2.85  13 2.85  16 2.85
                            15 3.29  15 3.29
  15  0.250  0.250  0.250-   1 2.85   4 2.85   6 2.85   8 2.85   9 2.85  12 2.85  13 2.85  16 2.85
                            14 3.29  10 3.29  10 3.29  14 3.29
  16  0.500  0.000  0.500-   2 2.85   3 2.85   5 2.85   7 2.85  10 2.85  11 2.85  14 2.85  15 2.85
                             9 3.29   9 3.29
 
  LATTYP: Found a simple cubic cell.
 ALAT       =     6.5800000000
  
  Lattice vectors:
  
 A1 = (   6.5800000000,   0.0000000000,   0.0000000000)
 A2 = (   0.0000000000,   6.5800000000,   0.0000000000)
 A3 = (   0.0000000000,   0.0000000000,   6.5800000000)


Analysis of symmetry for initial positions (statically):
=====================================================================
 Subroutine PRICEL returns:
 Original cell was already a primitive cell.
 

 Routine SETGRP: Setting up the symmetry group for a 
 simple cubic supercell.


 Subroutine GETGRP returns: Found  1 space group operations
 (whereof  1 operations were pure point group operations)
 out of a pool of 48 trial point group operations.


The static configuration has the point symmetry C_1 .


Analysis of symmetry for dynamics (positions and initial velocities):
=====================================================================
 Subroutine PRICEL returns:
 Original cell was already a primitive cell.
 

 Routine SETGRP: Setting up the symmetry group for a 
 simple cubic supercell.


 Subroutine GETGRP returns: Found  1 space group operations
 (whereof  1 operations were pure point group operations)
 out of a pool of 48 trial point group operations.


The dynamic configuration has the point symmetry C_1 .


 Subroutine INISYM returns: Found  1 space group operations
 (whereof  1 operations are pure point group operations),
 and found     1 'primitive' translations


----------------------------------------------------------------------------------------

                                     Primitive cell                                     

  volume of cell :     284.8903

  direct lattice vectors                    reciprocal lattice vectors
     6.580000000  0.000000000  0.000000000     0.151975684  0.000000000  0.000000000
     0.000000000  6.580000000  0.000000000     0.000000000  0.151975684  0.000000000
     0.000000000  0.000000000  6.580000000     0.000000000  0.000000000  0.151975684

  length of vectors
     6.580000000  6.580000000  6.580000000     0.151975684  0.151975684  0.151975684

  position of ions in fractional coordinates (direct lattice)
     0.000000000  0.500000000  0.000000000
     0.250000000  0.750000000  0.750000000
     0.750000000  0.750000000  0.250000000
     0.000000000  0.000000000  0.500000000
     0.750000000  0.250000000  0.250000000
     0.500000000  0.500000000  0.500000000
     0.750000000  0.250000000  0.750000000
     0.000000000  0.000000000  0.000000000
     0.500000000  0.000000000  0.000000000
     0.250000000  0.250000000  0.750000000
     0.750000000  0.750000000  0.750000000
     0.500000000  0.500000000  0.000000000
     0.000000000  0.500000000  0.500000000
     0.250000000  0.750000000  0.250000000
     0.250000000  0.250000000  0.250000000
     0.500000000  0.000000000  0.500000000

  ion indices of the primitive-cell ions
   primitive index   ion index
                 1           1
                 2           2
                 3           3
                 4           4
                 5           5
                 6           6
                 7           7
                 8           8
                 9           9
                10          10
                11          11
                12          12
                13          13
                14          14
                15          15
                16          16

----------------------------------------------------------------------------------------

 
 
 KPOINTS: K-Spacing Value to Generate K-Mesh: 0.03

Automatic generation of k-mesh.
 Grid dimensions read from file:
 generate k-points for:    5    5    5

 Generating k-lattice:

  Cartesian coordinates                     Fractional coordinates (reciprocal lattice)
     0.030395137  0.000000000  0.000000000     0.200000000  0.000000000  0.000000000
     0.000000000  0.030395137  0.000000000     0.000000000  0.200000000  0.000000000
     0.000000000  0.000000000  0.030395137     0.000000000  0.000000000  0.200000000

  Length of vectors
     0.030395137  0.030395137  0.030395137

  Shift w.r.t. Gamma in fractional coordinates (k-lattice)
     0.000000000  0.000000000  0.000000000

 
 Subroutine IBZKPT returns following result:
 ===========================================
 
 Found     63 irreducible k-points:
 
 Following reciprocal coordinates:
            Coordinates               Weight
  0.000000  0.000000  0.000000      1.000000
  0.200000  0.000000  0.000000      2.000000
  0.000000  0.200000  0.000000      2.000000
  0.000000  0.000000  0.200000      2.000000
  0.400000  0.000000  0.000000      2.000000
  0.000000  0.400000  0.000000      2.000000
  0.000000  0.000000  0.400000      2.000000
  0.200000  0.200000  0.000000      2.000000
  0.000000  0.200000  0.200000      2.000000
  0.200000  0.000000  0.200000      2.000000
 -0.200000  0.200000  0.000000      2.000000
 -0.200000  0.000000  0.200000      2.000000
  0.000000 -0.200000  0.200000      2.000000
  0.400000  0.200000  0.000000      2.000000
  0.000000  0.400000  0.200000      2.000000
  0.200000  0.000000  0.400000      2.000000
 -0.200000  0.400000  0.000000      2.000000
 -0.400000  0.000000  0.200000      2.000000
  0.000000  0.200000  0.400000      2.000000
  0.000000 -0.400000  0.200000      2.000000
 -0.200000  0.000000  0.400000      2.000000
  0.400000  0.000000  0.200000      2.000000
  0.000000 -0.200000  0.400000      2.000000
  0.400000 -0.200000  0.000000      2.000000
  0.200000  0.400000  0.000000      2.000000
  0.400000  0.400000  0.000000      2.000000
  0.000000  0.400000  0.400000      2.000000
  0.400000  0.000000  0.400000      2.000000
 -0.400000  0.400000  0.000000      2.000000
 -0.400000  0.000000  0.400000      2.000000
  0.000000 -0.400000  0.400000      2.000000
  0.200000  0.200000  0.200000      2.000000
 -0.200000  0.200000  0.200000      2.000000
 -0.200000 -0.200000  0.200000      2.000000
  0.200000 -0.200000  0.200000      2.000000
  0.400000  0.200000  0.200000      2.000000
  0.200000  0.400000  0.200000      2.000000
  0.200000  0.200000  0.400000      2.000000
 -0.200000  0.400000  0.200000      2.000000
 -0.400000  0.200000  0.200000      2.000000
 -0.200000  0.200000  0.400000      2.000000
 -0.400000 -0.200000  0.200000      2.000000
 -0.200000 -0.400000  0.200000      2.000000
 -0.200000 -0.200000  0.400000      2.000000
  0.200000 -0.400000  0.200000      2.000000
  0.400000 -0.200000  0.200000      2.000000
  0.200000 -0.200000  0.400000      2.000000
  0.400000  0.400000  0.200000      2.000000
  0.200000  0.400000  0.400000      2.000000
  0.400000  0.200000  0.400000      2.000000
 -0.400000  0.400000  0.200000      2.000000
 -0.400000  0.200000  0.400000      2.000000
 -0.200000  0.400000  0.400000      2.000000
 -0.400000 -0.400000  0.200000      2.000000
 -0.200000 -0.400000  0.400000      2.000000
 -0.400000 -0.200000  0.400000      2.000000
  0.400000 -0.400000  0.200000      2.000000
  0.400000 -0.200000  0.400000      2.000000
  0.200000 -0.400000  0.400000      2.000000
  0.400000  0.400000  0.400000      2.000000
 -0.400000  0.400000  0.400000      2.000000
 -0.400000 -0.400000  0.400000      2.000000
  0.400000 -0.400000  0.400000      2.000000
 
 Following cartesian coordinates:
            Coordinates               Weight
  0.000000  0.000000  0.000000      1.000000
  0.030395  0.000000  0.000000      2.000000
  0.000000  0.030395  0.000000      2.000000
  0.000000  0.000000  0.030395      2.000000
  0.060790  0.000000  0.000000      2.000000
  0.000000  0.060790  0.000000      2.000000
  0.000000  0.000000  0.060790      2.000000
  0.030395  0.030395  0.000000      2.000000
  0.000000  0.030395  0.030395      2.000000
  0.030395  0.000000  0.030395      2.000000
 -0.030395  0.030395  0.000000      2.000000
 -0.030395  0.000000  0.030395      2.000000
  0.000000 -0.030395  0.030395      2.000000
  0.060790  0.030395  0.000000      2.000000
  0.000000  0.060790  0.030395      2.000000
  0.030395  0.000000  0.060790      2.000000
 -0.030395  0.060790  0.000000      2.000000
 -0.060790  0.000000  0.030395      2.000000
  0.000000  0.030395  0.060790      2.000000
  0.000000 -0.060790  0.030395      2.000000
 -0.030395  0.000000  0.060790      2.000000
  0.060790  0.000000  0.030395      2.000000
  0.000000 -0.030395  0.060790      2.000000
  0.060790 -0.030395  0.000000      2.000000
  0.030395  0.060790  0.000000      2.000000
  0.060790  0.060790  0.000000      2.000000
  0.000000  0.060790  0.060790      2.000000
  0.060790  0.000000  0.060790      2.000000
 -0.060790  0.060790  0.000000      2.000000
 -0.060790  0.000000  0.060790      2.000000
  0.000000 -0.060790  0.060790      2.000000
  0.030395  0.030395  0.030395      2.000000
 -0.030395  0.030395  0.030395      2.000000
 -0.030395 -0.030395  0.030395      2.000000
  0.030395 -0.030395  0.030395      2.000000
  0.060790  0.030395  0.030395      2.000000
  0.030395  0.060790  0.030395      2.000000
  0.030395  0.030395  0.060790      2.000000
 -0.030395  0.060790  0.030395      2.000000
 -0.060790  0.030395  0.030395      2.000000
 -0.030395  0.030395  0.060790      2.000000
 -0.060790 -0.030395  0.030395      2.000000
 -0.030395 -0.060790  0.030395      2.000000
 -0.030395 -0.030395  0.060790      2.000000
  0.030395 -0.060790  0.030395      2.000000
  0.060790 -0.030395  0.030395      2.000000
  0.030395 -0.030395  0.060790      2.000000
  0.060790  0.060790  0.030395      2.000000
  0.030395  0.060790  0.060790      2.000000
  0.060790  0.030395  0.060790      2.000000
 -0.060790  0.060790  0.030395      2.000000
 -0.060790  0.030395  0.060790      2.000000
 -0.030395  0.060790  0.060790      2.000000
 -0.060790 -0.060790  0.030395      2.000000
 -0.030395 -0.060790  0.060790      2.000000
 -0.060790 -0.030395  0.060790      2.000000
  0.060790 -0.060790  0.030395      2.000000
  0.060790 -0.030395  0.060790      2.000000
  0.030395 -0.060790  0.060790      2.000000
  0.060790  0.060790  0.060790      2.000000
 -0.060790  0.060790  0.060790      2.000000
 -0.060790 -0.060790  0.060790      2.000000
  0.060790 -0.060790  0.060790      2.000000
 


--------------------------------------------------------------------------------------------------------




 Dimension of arrays:
   k-points           NKPTS =     63   k-points in BZ     NKDIM =     63   number of bands    NBANDS=    128
   number of dos      NEDOS =    301   number of ions     NIONS =     16
   non local maximal  LDIM  =      6   non local SUM 2l+1 LMDIM =     18
   total plane-waves  NPLWV =  46656
   max r-space proj   IRMAX =      1   max aug-charges    IRDMAX=   9546
   dimension x,y,z NGX =    36 NGY =   36 NGZ =   36
   dimension x,y,z NGXF=    72 NGYF=   72 NGZF=   72
   support grid    NGXF=    72 NGYF=   72 NGZF=   72
   ions per type =               6   2   3   5
   NGX,Y,Z   is equivalent  to a cutoff of   9.10,  9.10,  9.10 a.u.
   NGXF,Y,Z  is equivalent  to a cutoff of  18.19, 18.19, 18.19 a.u.

 SYSTEM =  unknown system                          
 POSCAR =  Nb-Mo-Ta-W alloy                        

 Startparameter for this run:
   NWRITE =      2    write-flag & timer
   PREC   = accura    normal or accurate (medium, high low for compatibility)
   ISTART =      0    job   : 0-new  1-cont  2-samecut
   ICHARG =      2    charge: 1-file 2-atom 10-const
   ISPIN  =      1    spin polarized calculation?
   LNONCOLLINEAR =      F non collinear calculations
   LSORBIT =      F    spin-orbit coupling
   INIWAV =      1    electr: 0-lowe 1-rand  2-diag
   LASPH  =      F    aspherical Exc in radial PAW
 Electronic Relaxation 1
   ENCUT  =  250.0 eV  18.37 Ry    4.29 a.u.   8.48  8.48  8.48*2*pi/ulx,y,z
   ENINI  =  250.0     initial cutoff
   ENAUG  =  455.7 eV  augmentation charge cutoff
   NELM   =     80;   NELMIN=  2; NELMDL= -5     # of ELM steps 
   EDIFF  = 0.1E-07   stopping-criterion for ELM
   LREAL  =      F    real-space projection
   NLSPLINE    = F    spline interpolate recip. space projectors
   LCOMPAT=      F    compatible to vasp.4.4
   GGA_COMPAT  = T    GGA compatible to vasp.4.4-vasp.4.6
   LMAXPAW     = -100 max onsite density
   LMAXMIX     =    2 max onsite mixed and CHGCAR
   VOSKOWN=      0    Vosko Wilk Nusair interpolation
   ROPT   =    0.00000   0.00000   0.00000   0.00000
 Ionic relaxation
   EDIFFG = -.1E-01   stopping-criterion for IOM
   NSW    =      0    number of steps for IOM
   NBLOCK =      1;   KBLOCK =      1    inner block; outer block 
   IBRION =     -1    ionic relax: 0-MD 1-quasi-New 2-CG
   NFREE  =      0    steps in history (QN), initial steepest desc. (CG)
   ISIF   =      2    stress and relaxation
   IWAVPR =     10    prediction:  0-non 1-charg 2-wave 3-comb
   ISYM   =      2    0-nonsym 1-usesym 2-fastsym
   LCORR  =      T    Harris-Foulkes like correction to forces

   POTIM  = 0.5000    time-step for ionic-motion
   TEIN   =    0.0    initial temperature
   TEBEG  =    0.0;   TEEND  =   0.0 temperature during run
   SMASS  =  -3.00    Nose mass-parameter (am)
   estimated Nose-frequenzy (Omega)   =  0.10E-29 period in steps = 0.13E+47 mass=  -0.989E-27a.u.
   SCALEE = 1.0000    scale energy and forces
   NPACO  =    256;   APACO  = 10.0  distance and # of slots for P.C.
   PSTRESS=    0.0 pullay stress

  Mass of Ions in am
   POMASS =  92.91 95.94180.95183.85
  Ionic Valenz
   ZVAL   =  13.00 14.00 11.00 14.00
  Atomic Wigner-Seitz radii
   RWIGS  =  -1.00 -1.00 -1.00 -1.00
  virtual crystal weights 
   VCA    =   1.00  1.00  1.00  1.00
   NELECT =     209.0000    total number of electrons
   NUPDOWN=      -1.0000    fix difference up-down

 DOS related values:
   EMIN   =  10.00;   EMAX   =-10.00  energy-range for DOS
   EFERMI =   0.00
   ISMEAR =     0;   SIGMA  =   0.02  broadening in eV -4-tet -1-fermi 0-gaus

 Electronic relaxation 2 (details)
   IALGO  =     38    algorithm
   LDIAG  =      T    sub-space diagonalisation (order eigenvalues)
   LSUBROT=      F    optimize rotation matrix (better conditioning)
   TURBO    =      0    0=normal 1=particle mesh
   IRESTART =      0    0=no restart 2=restart with 2 vectors
   NREBOOT  =      0    no. of reboots
   NMIN     =      0    reboot dimension
   EREF     =   0.00    reference energy to select bands
   IMIX   =      4    mixing-type and parameters
     AMIX     =   0.40;   BMIX     =  1.00
     AMIX_MAG =   1.60;   BMIX_MAG =  1.00
     AMIN     =   0.10
     WC   =   100.;   INIMIX=   1;  MIXPRE=   1;  MAXMIX= -45

 Intra band minimization:
   WEIMIN = 0.0000     energy-eigenvalue tresh-hold
   EBREAK =  0.20E-10  absolut break condition
   DEPER  =   0.30     relativ break condition  

   TIME   =   0.40     timestep for ELM

  volume/ion in A,a.u.               =      17.81       120.16
  Fermi-wavevector in a.u.,A,eV,Ry     =   1.476492  2.790165 29.661081  2.180028
  Thomas-Fermi vector in A             =   2.591012
 
 Write flags
   LWAVE        =      F    write WAVECAR
   LDOWNSAMPLE  =      F    k-point downsampling of WAVECAR
   LCHARG       =      F    write CHGCAR
   LVTOT        =      F    write LOCPOT, total local potential
   LVHAR        =      F    write LOCPOT, Hartree potential only
   LELF         =      F    write electronic localiz. function (ELF)
   LORBIT       =      0    0 simple, 1 ext, 2 COOP (PROOUT), +10 PAW based schemes


 Dipole corrections
   LMONO  =      F    monopole corrections only (constant potential shift)
   LDIPOL =      F    correct potential (dipole corrections)
   IDIPOL =      0    1-x, 2-y, 3-z, 4-all directions 
   EPSILON=  1.0000000 bulk dielectric constant

 Core level calculations are selected ICORELEVEL =  1
 Exchange correlation treatment:
   GGA     =    PE    GGA type
   LEXCH   =     8    internal setting for exchange type
   LIBXC   =     F    Libxc                    
   VOSKOWN =     0    Vosko Wilk Nusair interpolation
   LHFCALC =     F    Hartree Fock is set to
   LHFONE  =     F    Hartree Fock one center treatment
   AEXX    =    0.0000 exact exchange contribution

 Linear response parameters
   LEPSILON=     F    determine dielectric tensor
   LRPA    =     F    only Hartree local field effects (RPA)
   LNABLA  =     F    use nabla operator in PAW spheres
   LVEL    =     F    velocity operator in full k-point grid
   CSHIFT  =0.1000    complex shift for real part using Kramers Kronig
   OMEGAMAX=  -1.0    maximum frequency
   DEG_THRESHOLD= 0.2000000E-02 threshold for treating states as degnerate
   RTIME   =   -0.100 relaxation time in fs
  (WPLASMAI=    0.000 imaginary part of plasma frequency in eV, 0.658/RTIME)
   DFIELD  = 0.0000000 0.0000000 0.0000000 field for delta impulse in time
 
  Optional k-point grid parameters
   LKPOINTS_OPT  =     F    use optional k-point grid
   KPOINTS_OPT_MODE=     1    mode for optional k-point grid
 
 Orbital magnetization related:
   ORBITALMAG=     F  switch on orbital magnetization
   LCHIMAG   =     F  perturbation theory with respect to B field
   DQ        =  0.001000  dq finite difference perturbation B field
   LLRAUG    =     F  two centre corrections for induced B field



--------------------------------------------------------------------------------------------------------


 Static calculation
 charge density and potential will be updated during run
 non-spin polarized calculation
 Variant of blocked Davidson
 Davidson routine will perform the subspace rotation
 perform sub-space diagonalisation
    after iterative eigenvector-optimisation
 modified Broyden-mixing scheme, WC =      100.0
 initial mixing is a Kerker type mixing with AMIX =  0.4000 and BMIX =      1.0000
 Hartree-type preconditioning will be used
 using additional bands           23
 reciprocal scheme for non local part
 use partial core corrections
 calculate Harris-corrections to forces 
   (improved forces if not selfconsistent)
 use gradient corrections 
 use of overlap-Matrix (Vanderbilt PP)
 Gauss-broadening in eV      SIGMA  =   0.02


--------------------------------------------------------------------------------------------------------


  energy-cutoff  :      250.00
  volume of cell :      284.89
      direct lattice vectors                 reciprocal lattice vectors
     6.580000000  0.000000000  0.000000000     0.151975684  0.000000000  0.000000000
     0.000000000  6.580000000  0.000000000     0.000000000  0.151975684  0.000000000
     0.000000000  0.000000000  6.580000000     0.000000000  0.000000000  0.151975684

  length of vectors
     6.580000000  6.580000000  6.580000000     0.151975684  0.151975684  0.151975684


 
 k-points in units of 2pi/SCALE and weight: K-Spacing Value to Generate K-Mesh: 0.03
   0.00000000  0.00000000  0.00000000       0.008
   0.03039514  0.00000000  0.00000000       0.016
   0.00000000  0.03039514  0.00000000       0.016
   0.00000000  0.00000000  0.03039514       0.016
   0.06079027  0.00000000  0.00000000       0.016
   0.00000000  0.06079027  0.00000000       0.016
   0.00000000  0.00000000  0.06079027       0.016
   0.03039514  0.03039514  0.00000000       0.016
   0.00000000  0.03039514  0.03039514       0.016
   0.03039514  0.00000000  0.03039514       0.016
  -0.03039514  0.03039514  0.00000000       0.016
  -0.03039514  0.00000000  0.03039514       0.016
   0.00000000 -0.03039514  0.03039514       0.016
   0.06079027  0.03039514  0.00000000       0.016
   0.00000000  0.06079027  0.03039514       0.016
   0.03039514  0.00000000  0.06079027       0.016
  -0.03039514  0.06079027  0.00000000       0.016
  -0.06079027  0.00000000  0.03039514       0.016
   0.00000000  0.03039514  0.06079027       0.016
   0.00000000 -0.06079027  0.03039514       0.016
  -0.03039514  0.00000000  0.06079027       0.016
   0.06079027  0.00000000  0.03039514       0.016
   0.00000000 -0.03039514  0.06079027       0.016
   0.06079027 -0.03039514  0.00000000       0.016
   0.03039514  0.06079027  0.00000000       0.016
   0.06079027  0.06079027  0.00000000       0.016
   0.00000000  0.06079027  0.06079027       0.016
   0.06079027  0.00000000  0.06079027       0.016
  -0.06079027  0.06079027  0.00000000       0.016
  -0.06079027  0.00000000  0.06079027       0.016
   0.00000000 -0.06079027  0.06079027       0.016
   0.03039514  0.03039514  0.03039514       0.016
  -0.03039514  0.03039514  0.03039514       0.016
  -0.03039514 -0.03039514  0.03039514       0.016
   0.03039514 -0.03039514  0.03039514       0.016
   0.06079027  0.03039514  0.03039514       0.016
   0.03039514  0.06079027  0.03039514       0.016
   0.03039514  0.03039514  0.06079027       0.016
  -0.03039514  0.06079027  0.03039514       0.016
  -0.06079027  0.03039514  0.03039514       0.016
  -0.03039514  0.03039514  0.06079027       0.016
  -0.06079027 -0.03039514  0.03039514       0.016
  -0.03039514 -0.06079027  0.03039514       0.016
  -0.03039514 -0.03039514  0.06079027       0.016
   0.03039514 -0.06079027  0.03039514       0.016
   0.06079027 -0.03039514  0.03039514       0.016
   0.03039514 -0.03039514  0.06079027       0.016
   0.06079027  0.06079027  0.03039514       0.016
   0.03039514  0.06079027  0.06079027       0.016
   0.06079027  0.03039514  0.06079027       0.016
  -0.06079027  0.06079027  0.03039514       0.016
  -0.06079027  0.03039514  0.06079027       0.016
  -0.03039514  0.06079027  0.06079027       0.016
  -0.06079027 -0.06079027  0.03039514       0.016
  -0.03039514 -0.06079027  0.06079027       0.016
  -0.06079027 -0.03039514  0.06079027       0.016
   0.06079027 -0.06079027  0.03039514       0.016
   0.06079027 -0.03039514  0.06079027       0.016
   0.03039514 -0.06079027  0.06079027       0.016
   0.06079027  0.06079027  0.06079027       0.016
  -0.06079027  0.06079027  0.06079027       0.016
  -0.06079027 -0.06079027  0.06079027       0.016
   0.06079027 -0.06079027  0.06079027       0.016
 
 k-points in reciprocal lattice and weights: K-Spacing Value to Generate K-Mesh: 0.03
   0.00000000  0.00000000  0.00000000       0.008
   0.20000000  0.00000000  0.00000000       0.016
   0.00000000  0.20000000  0.00000000       0.016
   0.00000000  0.00000000  0.20000000       0.016
   0.40000000  0.00000000  0.00000000       0.016
   0.00000000  0.40000000  0.00000000       0.016
   0.00000000  0.00000000  0.40000000       0.016
   0.20000000  0.20000000  0.00000000       0.016
   0.00000000  0.20000000  0.20000000       0.016
   0.20000000  0.00000000  0.20000000       0.016
  -0.20000000  0.20000000  0.00000000       0.016
  -0.20000000  0.00000000  0.20000000       0.016
   0.00000000 -0.20000000  0.20000000       0.016
   0.40000000  0.20000000  0.00000000       0.016
   0.00000000  0.40000000  0.20000000       0.016
   0.20000000  0.00000000  0.40000000       0.016
  -0.20000000  0.40000000  0.00000000       0.016
  -0.40000000  0.00000000  0.20000000       0.016
   0.00000000  0.20000000  0.40000000       0.016
   0.00000000 -0.40000000  0.20000000       0.016
  -0.20000000  0.00000000  0.40000000       0.016
   0.40000000  0.00000000  0.20000000       0.016
   0.00000000 -0.20000000  0.40000000       0.016
   0.40000000 -0.20000000  0.00000000       0.016
   0.20000000  0.40000000  0.00000000       0.016
   0.40000000  0.40000000  0.00000000       0.016
   0.00000000  0.40000000  0.40000000       0.016
   0.40000000  0.00000000  0.40000000       0.016
  -0.40000000  0.40000000  0.00000000       0.016
  -0.40000000  0.00000000  0.40000000       0.016
   0.00000000 -0.40000000  0.40000000       0.016
   0.20000000  0.20000000  0.20000000       0.016
  -0.20000000  0.20000000  0.20000000       0.016
  -0.20000000 -0.20000000  0.20000000       0.016
   0.20000000 -0.20000000  0.20000000       0.016
   0.40000000  0.20000000  0.20000000       0.016
   0.20000000  0.40000000  0.20000000       0.016
   0.20000000  0.20000000  0.40000000       0.016
  -0.20000000  0.40000000  0.20000000       0.016
  -0.40000000  0.20000000  0.20000000       0.016
  -0.20000000  0.20000000  0.40000000       0.016
  -0.40000000 -0.20000000  0.20000000       0.016
  -0.20000000 -0.40000000  0.20000000       0.016
  -0.20000000 -0.20000000  0.40000000       0.016
   0.20000000 -0.40000000  0.20000000       0.016
   0.40000000 -0.20000000  0.20000000       0.016
   0.20000000 -0.20000000  0.40000000       0.016
   0.40000000  0.40000000  0.20000000       0.016
   0.20000000  0.40000000  0.40000000       0.016
   0.40000000  0.20000000  0.40000000       0.016
  -0.40000000  0.40000000  0.20000000       0.016
  -0.40000000  0.20000000  0.40000000       0.016
  -0.20000000  0.40000000  0.40000000       0.016
  -0.40000000 -0.40000000  0.20000000       0.016
  -0.20000000 -0.40000000  0.40000000       0.016
  -0.40000000 -0.20000000  0.40000000       0.016
   0.40000000 -0.40000000  0.20000000       0.016
   0.40000000 -0.20000000  0.40000000       0.016
   0.20000000 -0.40000000  0.40000000       0.016
   0.40000000  0.40000000  0.40000000       0.016
  -0.40000000  0.40000000  0.40000000       0.016
  -0.40000000 -0.40000000  0.40000000       0.016
   0.40000000 -0.40000000  0.40000000       0.016
 
 position of ions in fractional coordinates (direct lattice) 
   0.00000000  0.50000000  0.00000000
   0.25000000  0.75000000  0.75000000
   0.75000000  0.75000000  0.25000000
   0.00000000  0.00000000  0.50000000
   0.75000000  0.25000000  0.25000000
   0.50000000  0.50000000  0.50000000
   0.75000000  0.25000000  0.75000000
   0.00000000  0.00000000  0.00000000
   0.50000000  0.00000000  0.00000000
   0.25000000  0.25000000  0.75000000
   0.75000000  0.75000000  0.75000000
   0.50000000  0.50000000  0.00000000
   0.00000000  0.50000000  0.50000000
   0.25000000  0.75000000  0.25000000
   0.25000000  0.25000000  0.25000000
   0.50000000  0.00000000  0.50000000
 
 position of ions in cartesian coordinates  (Angst):
   0.00000000  3.29000000  0.00000000
   1.64500000  4.93500000  4.93500000
   4.93500000  4.93500000  1.64500000
   0.00000000  0.00000000  3.29000000
   4.93500000  1.64500000  1.64500000
   3.29000000  3.29000000  3.29000000
   4.93500000  1.64500000  4.93500000
   0.00000000  0.00000000  0.00000000
   3.29000000  0.00000000  0.00000000
   1.64500000  1.64500000  4.93500000
   4.93500000  4.93500000  4.93500000
   3.29000000  3.29000000  0.00000000
   0.00000000  3.29000000  3.29000000
   1.64500000  4.93500000  1.64500000
   1.64500000  1.64500000  1.64500000
   3.29000000  0.00000000  3.29000000
 


--------------------------------------------------------------------------------------------------------


 k-point   1 :   0.0000 0.0000 0.0000  plane waves:    2517
 k-point   2 :   0.2000 0.0000 0.0000  plane waves:    2545
 k-point   3 :   0.0000 0.2000 0.0000  plane waves:    2545
 k-point   4 :   0.0000 0.0000 0.2000  plane waves:    2545
 k-point   5 :   0.4000 0.0000 0.0000  plane waves:    2569
 k-point   6 :   0.0000 0.4000 0.0000  plane waves:    2569
 k-point   7 :   0.0000 0.0000 0.4000  plane waves:    2569
 k-point   8 :   0.2000 0.2000 0.0000  plane waves:    2562
 k-point   9 :   0.0000 0.2000 0.2000  plane waves:    2562
 k-point  10 :   0.2000 0.0000 0.2000  plane waves:    2562
 k-point  11 :  -0.2000 0.2000 0.0000  plane waves:    2562
 k-point  12 :  -0.2000 0.0000 0.2000  plane waves:    2562
 k-point  13 :   0.0000-0.2000 0.2000  plane waves:    2562
 k-point  14 :   0.4000 0.2000 0.0000  plane waves:    2566
 k-point  15 :   0.0000 0.4000 0.2000  plane waves:    2566
 k-point  16 :   0.2000 0.0000 0.4000  plane waves:    2566
 k-point  17 :  -0.2000 0.4000 0.0000  plane waves:    2566
 k-point  18 :  -0.4000 0.0000 0.2000  plane waves:    2566
 k-point  19 :   0.0000 0.2000 0.4000  plane waves:    2566
 k-point  20 :   0.0000-0.4000 0.2000  plane waves:    2566
 k-point  21 :  -0.2000 0.0000 0.4000  plane waves:    2566
 k-point  22 :   0.4000 0.0000 0.2000  plane waves:    2566
 k-point  23 :   0.0000-0.2000 0.4000  plane waves:    2566
 k-point  24 :   0.4000-0.2000 0.0000  plane waves:    2566
 k-point  25 :   0.2000 0.4000 0.0000  plane waves:    2566
 k-point  26 :   0.4000 0.4000 0.0000  plane waves:    2570
 k-point  27 :   0.0000 0.4000 0.4000  plane waves:    2570
 k-point  28 :   0.4000 0.0000 0.4000  plane waves:    2570
 k-point  29 :  -0.4000 0.4000 0.0000  plane waves:    2570
 k-point  30 :  -0.4000 0.0000 0.4000  plane waves:    2570
 k-point  31 :   0.0000-0.4000 0.4000  plane waves:    2570
 k-point  32 :   0.2000 0.2000 0.2000  plane waves:    2572
 k-point  33 :  -0.2000 0.2000 0.2000  plane waves:    2572
 k-point  34 :  -0.2000-0.2000 0.2000  plane waves:    2572
 k-point  35 :   0.2000-0.2000 0.2000  plane waves:    2572
 k-point  36 :   0.4000 0.2000 0.2000  plane waves:    2546
 k-point  37 :   0.2000 0.4000 0.2000  plane waves:    2546
 k-point  38 :   0.2000 0.2000 0.4000  plane waves:    2546
 k-point  39 :  -0.2000 0.4000 0.2000  plane waves:    2546
 k-point  40 :  -0.4000 0.2000 0.2000  plane waves:    2546
 k-point  41 :  -0.2000 0.2000 0.4000  plane waves:    2546
 k-point  42 :  -0.4000-0.2000 0.2000  plane waves:    2546
 k-point  43 :  -0.2000-0.4000 0.2000  plane waves:    2546
 k-point  44 :  -0.2000-0.2000 0.4000  plane waves:    2546
 k-point  45 :   0.2000-0.4000 0.2000  plane waves:    2546
 k-point  46 :   0.4000-0.2000 0.2000  plane waves:    2546
 k-point  47 :   0.2000-0.2000 0.4000  plane waves:    2546
 k-point  48 :   0.4000 0.4000 0.2000  plane waves:    2549
 k-point  49 :   0.2000 0.4000 0.4000  plane waves:    2549
 k-point  50 :   0.4000 0.2000 0.4000  plane waves:    2549
 k-point  51 :  -0.4000 0.4000 0.2000  plane waves:    2549
 k-point  52 :  -0.4000 0.2000 0.4000  plane waves:    2549
 k-point  53 :  -0.2000 0.4000 0.4000  plane waves:    2549
 k-point  54 :  -0.4000-0.4000 0.2000  plane waves:    2549
 k-point  55 :  -0.2000-0.4000 0.4000  plane waves:    2549
 k-point  56 :  -0.4000-0.2000 0.4000  plane waves:    2549
 k-point  57 :   0.4000-0.4000 0.2000  plane waves:    2549
 k-point  58 :   0.4000-0.2000 0.4000  plane waves:    2549
 k-point  59 :   0.2000-0.4000 0.4000  plane waves:    2549
 k-point  60 :   0.4000 0.4000 0.4000  plane waves:    2533
 k-point  61 :  -0.4000 0.4000 0.4000  plane waves:    2533
 k-point  62 :  -0.4000-0.4000 0.4000  plane waves:    2533
 k-point  63 :   0.4000-0.4000 0.4000  plane waves:    2533

 maximum and minimum number of plane-waves per node :       235      194

 maximum number of plane-waves:      2572
 maximum index in each direction: 
   IXMAX=    8   IYMAX=    8   IZMAX=    8
   IXMIN=   -8   IYMIN=   -8   IZMIN=   -8


 parallel 3D FFT for wavefunctions:
    minimum data exchange during FFTs selected (reduces bandwidth)
 parallel 3D FFT for charge:
    minimum data exchange during FFTs selected (reduces bandwidth)


 total amount of memory used by VASP MPI-rank0    48253. kBytes
=======================================================================

   base      :      30000. kBytes
   nonl-proj :       8332. kBytes
   fftplans  :        456. kBytes
   grid      :        919. kBytes
   one-center:         31. kBytes
   wavefun   :       8515. kBytes
 
     INWAV:  cpu time      0.0000: real time      0.0004
 Broyden mixing: mesh for mixing (old mesh)
   NGX = 17   NGY = 17   NGZ = 17
  (NGX  = 72   NGY  = 72   NGZ  = 72)
  gives a total of   4913 points

 initial charge density was supplied:
 charge density of overlapping atoms calculated
 number of electron     209.0000000 magnetization 
 keeping initial charge density in first step


--------------------------------------------------------------------------------------------------------


 Maximum index for augmentation-charges          517 (set IRDMAX)


--------------------------------------------------------------------------------------------------------


 First call to EWALD:  gamma=   0.269
 Maximum number of real-space cells 3x 3x 3
 Maximum number of reciprocal cells 3x 3x 3

    FEWALD:  cpu time      0.0013: real time      0.0013


--------------------------------------- Iteration      1(   1)  ---------------------------------------


    POTLOK:  cpu time      0.0305: real time      0.0741
    SETDIJ:  cpu time      0.0024: real time      0.0026
     EDDAV:  cpu time      3.5157: real time      3.5359
       DOS:  cpu time      0.0052: real time      0.0053
    --------------------------------------------
      LOOP:  cpu time      3.5539: real time      3.6179

 eigenvalue-minimisations  : 16416
 total energy-change (2. order) : 0.1962068E+04  (-0.7971008E+04)
 number of electron     209.0000000 magnetization 
 augmentation part      209.0000000 magnetization 

 Free energy of the ion-electron system (eV)
  ---------------------------------------------------
  alpha Z        PSCENC =      1784.07396419
  Ewald energy   TEWEN  =    -21801.62391353
  -Hartree energ DENC   =     -4036.79553131
  -exchange      EXHF   =         0.00000000
  -V(xc)+E(xc)   XCENC  =       831.55053343
  PAW double counting   =     20178.57979084   -19865.13658842
  entropy T*S    EENTRO =        -0.00139083
  eigenvalues    EBANDS =      -651.86384926
  atomic energy  EATOM  =     25523.28521920
  Solvation  Ediel_sol  =         0.00000000
  ---------------------------------------------------
  free energy    TOTEN  =      1962.06823431 eV

  energy without entropy =     1962.06962514  energy(sigma->0) =     1962.06892973


--------------------------------------------------------------------------------------------------------




--------------------------------------- Iteration      1(   2)  ---------------------------------------


     EDDAV:  cpu time      3.1831: real time      3.1972
       DOS:  cpu time      0.0050: real time      0.0051
    --------------------------------------------
      LOOP:  cpu time      3.1882: real time      3.2023

 eigenvalue-minimisations  : 16448
 total energy-change (2. order) :-0.1963021E+04  (-0.1899870E+04)
 number of electron     209.0000000 magnetization 
 augmentation part      209.0000000 magnetization 

 Free energy of the ion-electron system (eV)
  ---------------------------------------------------
  alpha Z        PSCENC =      1784.07396419
  Ewald energy   TEWEN  =    -21801.62391353
  -Hartree energ DENC   =     -4036.79553131
  -exchange      EXHF   =         0.00000000
  -V(xc)+E(xc)   XCENC  =       831.55053343
  PAW double counting   =     20178.57979084   -19865.13658842
  entropy T*S    EENTRO =        -0.00194509
  eigenvalues    EBANDS =     -2614.88416822
  atomic energy  EATOM  =     25523.28521920
  Solvation  Ediel_sol  =         0.00000000
  ---------------------------------------------------
  free energy    TOTEN  =        -0.95263891 eV

  energy without entropy =       -0.95069382  energy(sigma->0) =       -0.95166636


--------------------------------------------------------------------------------------------------------




--------------------------------------- Iteration      1(   3)  ---------------------------------------


     EDDAV:  cpu time      4.4772: real time      4.4962
       DOS:  cpu time      0.0050: real time      0.0050
    --------------------------------------------
      LOOP:  cpu time      4.4821: real time      4.5011

 eigenvalue-minimisations  : 25520
 total energy-change (2. order) :-0.1790261E+03  (-0.1686844E+03)
 number of electron     209.0000000 magnetization 
 augmentation part      209.0000000 magnetization 

 Free energy of the ion-electron system (eV)
  ---------------------------------------------------
  alpha Z        PSCENC =      1784.07396419
  Ewald energy   TEWEN  =    -21801.62391353
  -Hartree energ DENC   =     -4036.79553131
  -exchange      EXHF   =         0.00000000
  -V(xc)+E(xc)   XCENC  =       831.55053343
  PAW double counting   =     20178.57979084   -19865.13658842
  entropy T*S    EENTRO =        -0.00378306
  eigenvalues    EBANDS =     -2793.90846703
  atomic energy  EATOM  =     25523.28521920
  Solvation  Ediel_sol  =         0.00000000
  ---------------------------------------------------
  free energy    TOTEN  =      -179.97877569 eV

  energy without entropy =     -179.97499263  energy(sigma->0) =     -179.97688416


--------------------------------------------------------------------------------------------------------




--------------------------------------- Iteration      1(   4)  ---------------------------------------


     EDDAV:  cpu time      4.2595: real time      4.2778
       DOS:  cpu time      0.0052: real time      0.0052
    --------------------------------------------
      LOOP:  cpu time      4.2647: real time      4.2830

 eigenvalue-minimisations  : 24360
 total energy-change (2. order) :-0.1246254E+02  (-0.1209912E+02)
 number of electron     209.0000000 magnetization 
 augmentation part      209.0000000 magnetization 

 Free energy of the ion-electron system (eV)
  ---------------------------------------------------
  alpha Z        PSCENC =      1784.07396419
  Ewald energy   TEWEN  =    -21801.62391353
  -Hartree energ DENC   =     -4036.79553131
  -exchange      EXHF   =         0.00000000
  -V(xc)+E(xc)   XCENC  =       831.55053343
  PAW double counting   =     20178.57979084   -19865.13658842
  entropy T*S    EENTRO =        -0.00409130
  eigenvalues    EBANDS =     -2806.37069439
  atomic energy  EATOM  =     25523.28521920
  Solvation  Ediel_sol  =         0.00000000
  ---------------------------------------------------
  free energy    TOTEN  =      -192.44131129 eV

  energy without entropy =     -192.43721999  energy(sigma->0) =     -192.43926564


--------------------------------------------------------------------------------------------------------




--------------------------------------- Iteration      1(   5)  ---------------------------------------


     EDDAV:  cpu time      4.4893: real time      4.5119
       DOS:  cpu time      0.0052: real time      0.0052
    CHARGE:  cpu time      0.0820: real time      0.0823
    MIXING:  cpu time      0.0002: real time      0.0002
    --------------------------------------------
      LOOP:  cpu time      4.5767: real time      4.5996

 eigenvalue-minimisations  : 25928
 total energy-change (2. order) :-0.7668833E+00  (-0.7618147E+00)
 number of electron     208.9999847 magnetization 
 augmentation part       42.0080524 magnetization 

 Broyden mixing:
  rms(total) = 0.52754E+01    rms(broyden)= 0.52745E+01
  rms(prec ) = 0.57677E+01
  weight for this iteration     100.00

 Free energy of the ion-electron system (eV)
  ---------------------------------------------------
  alpha Z        PSCENC =      1784.07396419
  Ewald energy   TEWEN  =    -21801.62391353
  -Hartree energ DENC   =     -4036.79553131
  -exchange      EXHF   =         0.00000000
  -V(xc)+E(xc)   XCENC  =       831.55053343
  PAW double counting   =     20178.57979084   -19865.13658842
  entropy T*S    EENTRO =        -0.00415172
  eigenvalues    EBANDS =     -2807.13751732
  atomic energy  EATOM  =     25523.28521920
  Solvation  Ediel_sol  =         0.00000000
  ---------------------------------------------------
  free energy    TOTEN  =      -193.20819463 eV

  energy without entropy =     -193.20404291  energy(sigma->0) =     -193.20611877


--------------------------------------------------------------------------------------------------------




--------------------------------------- Iteration      1(   6)  ---------------------------------------


    POTLOK:  cpu time      0.0043: real time      0.0044
    SETDIJ:  cpu time      0.0018: real time      0.0018
     EDDAV:  cpu time      3.5702: real time      3.5856
       DOS:  cpu time      0.0051: real time      0.0051
    CHARGE:  cpu time      0.0841: real time      0.0845
    MIXING:  cpu time      0.0003: real time      0.0003
    --------------------------------------------
      LOOP:  cpu time      3.6658: real time      3.6817

 eigenvalue-minimisations  : 19176
 total energy-change (2. order) : 0.7489901E+01  (-0.1727212E+01)
 number of electron     208.9999840 magnetization 
 augmentation part       43.4746858 magnetization 

 Broyden mixing:
  rms(total) = 0.19860E+01    rms(broyden)= 0.19858E+01
  rms(prec ) = 0.23040E+01
  weight for this iteration     100.00

 eigenvalues of (default mixing * dielectric matrix)
  average eigenvalue GAMMA=   1.4982
  1.4982

 Free energy of the ion-electron system (eV)
  ---------------------------------------------------
  alpha Z        PSCENC =      1784.07396419
  Ewald energy   TEWEN  =    -21801.62391353
  -Hartree energ DENC   =     -3821.83256401
  -exchange      EXHF   =         0.00000000
  -V(xc)+E(xc)   XCENC  =       820.85114854
  PAW double counting   =     24139.71682380   -23850.66384489
  entropy T*S    EENTRO =        -0.00237203
  eigenvalues    EBANDS =     -2979.52275518
  atomic energy  EATOM  =     25523.28521920
  Solvation  Ediel_sol  =         0.00000000
  ---------------------------------------------------
  free energy    TOTEN  =      -185.71829391 eV

  energy without entropy =     -185.71592188  energy(sigma->0) =     -185.71710789


--------------------------------------------------------------------------------------------------------




--------------------------------------- Iteration      1(   7)  ---------------------------------------


    POTLOK:  cpu time      0.0043: real time      0.0044
    SETDIJ:  cpu time      0.0017: real time      0.0017
     EDDAV:  cpu time      4.1218: real time      4.1399
       DOS:  cpu time      0.0046: real time      0.0047
    CHARGE:  cpu time      0.0843: real time      0.0847
    MIXING:  cpu time      0.0003: real time      0.0003
    --------------------------------------------
      LOOP:  cpu time      4.2170: real time      4.2357

 eigenvalue-minimisations  : 23288
 total energy-change (2. order) : 0.5728409E+00  (-0.1095916E+01)
 number of electron     208.9999844 magnetization 
 augmentation part       43.5375523 magnetization 

 Broyden mixing:
  rms(total) = 0.79136E+00    rms(broyden)= 0.79120E+00
  rms(prec ) = 0.16572E+01
  weight for this iteration     100.00

 eigenvalues of (default mixing * dielectric matrix)
  average eigenvalue GAMMA=   1.1223
  1.6180  0.6266

 Free energy of the ion-electron system (eV)
  ---------------------------------------------------
  alpha Z        PSCENC =      1784.07396419
  Ewald energy   TEWEN  =    -21801.62391353
  -Hartree energ DENC   =     -3732.68401937
  -exchange      EXHF   =         0.00000000
  -V(xc)+E(xc)   XCENC  =       816.01428530
  PAW double counting   =     26921.91463219   -26643.94104027
  entropy T*S    EENTRO =        -0.00145111
  eigenvalues    EBANDS =     -3052.18312965
  atomic energy  EATOM  =     25523.28521920
  Solvation  Ediel_sol  =         0.00000000
  ---------------------------------------------------
  free energy    TOTEN  =      -185.14545305 eV

  energy without entropy =     -185.14400194  energy(sigma->0) =     -185.14472750


--------------------------------------------------------------------------------------------------------




--------------------------------------- Iteration      1(   8)  ---------------------------------------


    POTLOK:  cpu time      0.0047: real time      0.0048
    SETDIJ:  cpu time      0.0017: real time      0.0017
     EDDAV:  cpu time      3.8249: real time      3.8413
       DOS:  cpu time      0.0045: real time      0.0045
    CHARGE:  cpu time      0.0796: real time      0.0799
    MIXING:  cpu time      0.0003: real time      0.0003
    --------------------------------------------
      LOOP:  cpu time      3.9157: real time      3.9325

 eigenvalue-minimisations  : 21208
 total energy-change (2. order) : 0.1099635E+01  (-0.4378151E+00)
 number of electron     208.9999842 magnetization 
 augmentation part       43.8066848 magnetization 

 Broyden mixing:
  rms(total) = 0.36845E+00    rms(broyden)= 0.36812E+00
  rms(prec ) = 0.51861E+00
  weight for this iteration     100.00

 eigenvalues of (default mixing * dielectric matrix)
  average eigenvalue GAMMA=   1.1245
  1.6557  1.2503  0.4674

 Free energy of the ion-electron system (eV)
  ---------------------------------------------------
  alpha Z        PSCENC =      1784.07396419
  Ewald energy   TEWEN  =    -21801.62391353
  -Hartree energ DENC   =     -3706.28900213
  -exchange      EXHF   =         0.00000000
  -V(xc)+E(xc)   XCENC  =       814.87914935
  PAW double counting   =     27515.45872911   -27239.87295558
  entropy T*S    EENTRO =        -0.00230271
  eigenvalues    EBANDS =     -3073.95470594
  atomic energy  EATOM  =     25523.28521920
  Solvation  Ediel_sol  =         0.00000000
  ---------------------------------------------------
  free energy    TOTEN  =      -184.04581804 eV

  energy without entropy =     -184.04351533  energy(sigma->0) =     -184.04466669


--------------------------------------------------------------------------------------------------------




--------------------------------------- Iteration      1(   9)  ---------------------------------------


    POTLOK:  cpu time      0.0046: real time      0.0047
    SETDIJ:  cpu time      0.0017: real time      0.0017
     EDDAV:  cpu time      3.9006: real time      3.9175
       DOS:  cpu time      0.0049: real time      0.0050
    CHARGE:  cpu time      0.0846: real time      0.0849
    MIXING:  cpu time      0.0003: real time      0.0003
    --------------------------------------------
      LOOP:  cpu time      3.9967: real time      4.0140

 eigenvalue-minimisations  : 21728
 total energy-change (2. order) :-0.1549546E-01  (-0.7379757E-01)
 number of electron     208.9999844 magnetization 
 augmentation part       43.7781194 magnetization 

 Broyden mixing:
  rms(total) = 0.25570E+00    rms(broyden)= 0.25563E+00
  rms(prec ) = 0.38460E+00
  weight for this iteration     100.00

 eigenvalues of (default mixing * dielectric matrix)
  average eigenvalue GAMMA=   1.2230
  2.2270  1.6362  0.6187  0.4102

 Free energy of the ion-electron system (eV)
  ---------------------------------------------------
  alpha Z        PSCENC =      1784.07396419
  Ewald energy   TEWEN  =    -21801.62391353
  -Hartree energ DENC   =     -3706.66224813
  -exchange      EXHF   =         0.00000000
  -V(xc)+E(xc)   XCENC  =       814.90769129
  PAW double counting   =     27715.47589915   -27438.41757079
  entropy T*S    EENTRO =        -0.00212592
  eigenvalues    EBANDS =     -3075.09822897
  atomic energy  EATOM  =     25523.28521920
  Solvation  Ediel_sol  =         0.00000000
  ---------------------------------------------------
  free energy    TOTEN  =      -184.06131350 eV

  energy without entropy =     -184.05918758  energy(sigma->0) =     -184.06025054


--------------------------------------------------------------------------------------------------------




--------------------------------------- Iteration      1(  10)  ---------------------------------------


    POTLOK:  cpu time      0.0047: real time      0.0048
    SETDIJ:  cpu time      0.0017: real time      0.0017
     EDDAV:  cpu time      3.8245: real time      3.8410
       DOS:  cpu time      0.0052: real time      0.0052
    CHARGE:  cpu time      0.0842: real time      0.0845
    MIXING:  cpu time      0.0003: real time      0.0003
    --------------------------------------------
      LOOP:  cpu time      3.9206: real time      3.9376

 eigenvalue-minimisations  : 21152
 total energy-change (2. order) : 0.2100582E-01  (-0.2280750E-01)
 number of electron     208.9999843 magnetization 
 augmentation part       43.7373711 magnetization 

 Broyden mixing:
  rms(total) = 0.93167E-01    rms(broyden)= 0.93090E-01
  rms(prec ) = 0.18369E+00
  weight for this iteration     100.00

 eigenvalues of (default mixing * dielectric matrix)
  average eigenvalue GAMMA=   1.1812
  2.5811  1.6413  0.8255  0.4665  0.3916

 Free energy of the ion-electron system (eV)
  ---------------------------------------------------
  alpha Z        PSCENC =      1784.07396419
  Ewald energy   TEWEN  =    -21801.62391353
  -Hartree energ DENC   =     -3709.43241147
  -exchange      EXHF   =         0.00000000
  -V(xc)+E(xc)   XCENC  =       815.00791519
  PAW double counting   =     27979.18655723   -27699.40008262
  entropy T*S    EENTRO =        -0.00213461
  eigenvalues    EBANDS =     -3075.13542125
  atomic energy  EATOM  =     25523.28521920
  Solvation  Ediel_sol  =         0.00000000
  ---------------------------------------------------
  free energy    TOTEN  =      -184.04030768 eV

  energy without entropy =     -184.03817306  energy(sigma->0) =     -184.03924037


--------------------------------------------------------------------------------------------------------




--------------------------------------- Iteration      1(  11)  ---------------------------------------


    POTLOK:  cpu time      0.0046: real time      0.0048
    SETDIJ:  cpu time      0.0017: real time      0.0017
     EDDAV:  cpu time      3.8382: real time      3.8550
       DOS:  cpu time      0.0048: real time      0.0048
    CHARGE:  cpu time      0.0847: real time      0.0850
    MIXING:  cpu time      0.0003: real time      0.0003
    --------------------------------------------
      LOOP:  cpu time      3.9344: real time      3.9517

 eigenvalue-minimisations  : 21128
 total energy-change (2. order) : 0.4573638E-02  (-0.6887904E-02)
 number of electron     208.9999844 magnetization 
 augmentation part       43.7008759 magnetization 

 Broyden mixing:
  rms(total) = 0.36205E-01    rms(broyden)= 0.36152E-01
  rms(prec ) = 0.82033E-01
  weight for this iteration     100.00

 eigenvalues of (default mixing * dielectric matrix)
  average eigenvalue GAMMA=   1.0775
  2.5216  1.6407  0.8729  0.6035  0.4669  0.3595

 Free energy of the ion-electron system (eV)
  ---------------------------------------------------
  alpha Z        PSCENC =      1784.07396419
  Ewald energy   TEWEN  =    -21801.62391353
  -Hartree energ DENC   =     -3711.02850510
  -exchange      EXHF   =         0.00000000
  -V(xc)+E(xc)   XCENC  =       815.08048656
  PAW double counting   =     28080.31198136   -27798.99452619
  entropy T*S    EENTRO =        -0.00215319
  eigenvalues    EBANDS =     -3075.13828734
  atomic energy  EATOM  =     25523.28521920
  Solvation  Ediel_sol  =         0.00000000
  ---------------------------------------------------
  free energy    TOTEN  =      -184.03573404 eV

  energy without entropy =     -184.03358085  energy(sigma->0) =     -184.03465744


--------------------------------------------------------------------------------------------------------




--------------------------------------- Iteration      1(  12)  ---------------------------------------


    POTLOK:  cpu time      0.0047: real time      0.0048
    SETDIJ:  cpu time      0.0018: real time      0.0018
     EDDAV:  cpu time      3.9859: real time      4.0031
       DOS:  cpu time      0.0049: real time      0.0049
    CHARGE:  cpu time      0.0843: real time      0.0846
    MIXING:  cpu time      0.0004: real time      0.0004
    --------------------------------------------
      LOOP:  cpu time      4.0820: real time      4.0997

 eigenvalue-minimisations  : 22424
 total energy-change (2. order) : 0.2988872E-02  (-0.1367989E-02)
 number of electron     208.9999844 magnetization 
 augmentation part       43.7119507 magnetization 

 Broyden mixing:
  rms(total) = 0.17743E-01    rms(broyden)= 0.17723E-01
  rms(prec ) = 0.24631E-01
[...]
     33     -25.0277      2.00000
     34     -24.9018      2.00000
     35     -24.4731      2.00000
     36     -24.4063      2.00000
     37     -24.2730      2.00000
     38     -24.2513      2.00000
     39     -24.2208      2.00000
     40     -24.1991      2.00000
     41     -24.1751      2.00000
     42     -24.0709      2.00000
     43     -23.9905      2.00000
     44     -21.2830      2.00000
     45     -21.2558      2.00000
     46     -21.1563      2.00000
     47     -21.1281      2.00000
     48     -21.0670      2.00000
     49     -20.9660      2.00000
     50     -20.8879      2.00000
     51     -20.8767      2.00000
     52     -20.8688      2.00000
     53     -20.8591      2.00000
     54     -20.8400      2.00000
     55     -20.8340      2.00000
     56     -20.7344      2.00000
     57     -20.6486      2.00000
     58     -20.6028      2.00000
     59     -20.5742      2.00000
     60     -20.5011      2.00000
     61     -20.4935      2.00000
     62       4.2039      2.00000
     63       4.6452      2.00000
     64       4.8741      2.00000
     65       5.2824      2.00000
     66       5.4758      2.00000
     67       5.8013      2.00000
     68       6.1245      2.00000
     69       6.4749      2.00000
     70       6.8274      2.00000
     71       6.8379      2.00000
     72       6.8910      2.00000
     73       6.9429      2.00000
     74       6.9779      2.00000
     75       7.0652      2.00000
     76       7.0893      2.00000
     77       7.1454      2.00000
     78       7.2138      2.00000
     79       7.2319      2.00000
     80       7.2520      2.00000
     81       7.3267      2.00000
     82       7.6306      2.00000
     83       7.6488      2.00000
     84       7.7104      2.00000
     85       7.7699      2.00000
     86       7.7976      2.00000
     87       7.8212      2.00000
     88       7.8478      2.00000
     89       7.8881      2.00000
     90       7.9326      2.00000
     91       7.9471      2.00000
     92       7.9615      2.00000
     93       8.0138      2.00000
     94       8.0515      2.00000
     95       8.0798      2.00000
     96       8.1391      2.00000
     97       8.1619      2.00000
     98       8.1875      2.00000
     99       8.2107      2.00000
    100       8.2582      2.00000
    101       8.3067      2.00000
    102       8.3484      2.00000
    103       8.4065      2.00000
    104       8.4392      2.00000
    105       8.4839      2.00000
    106       8.5026      2.00000
    107       8.5183      2.00000
    108       8.5714      2.00000
    109       8.9618      2.00000
    110      11.6609      0.00000
    111      11.7427      0.00000
    112      11.8703      0.00000
    113      11.9091      0.00000
    114      12.0080      0.00000
    115      12.0560      0.00000
    116      12.1036      0.00000
    117      12.1724      0.00000
    118      12.2158      0.00000
    119      12.2751      0.00000
    120      12.3617      0.00000
    121      12.4093      0.00000
    122      12.4375      0.00000
    123      12.4972      0.00000
    124      12.5419      0.00000
    125      12.7041      0.00000
    126      12.7721      0.00000
    127      12.8415      0.00000
    128      12.8846      0.00000

 k-point    63 :       0.4000   -0.4000    0.4000
  band No.  band energies     occupation 
      1     -64.0313      2.00000
      2     -64.0276      2.00000
      3     -63.9611      2.00000
      4     -63.9598      2.00000
      5     -63.9232      2.00000
      6     -50.9902      2.00000
      7     -50.9042      2.00000
      8     -44.8380      2.00000
      9     -44.8014      2.00000
     10     -44.7697      2.00000
     11     -44.7590      2.00000
     12     -44.7066      2.00000
     13     -44.6925      2.00000
     14     -28.4120      2.00000
     15     -28.3838      2.00000
     16     -28.3653      2.00000
     17     -28.3503      2.00000
     18     -28.3131      2.00000
     19     -28.2750      2.00000
     20     -28.1753      2.00000
     21     -28.1690      2.00000
     22     -28.1400      2.00000
     23     -28.1372      2.00000
     24     -28.0910      2.00000
     25     -28.0396      2.00000
     26     -28.0295      2.00000
     27     -28.0220      2.00000
     28     -27.9987      2.00000
     29     -25.2263      2.00000
     30     -25.1177      2.00000
     31     -25.0903      2.00000
     32     -25.0522      2.00000
     33     -25.0277      2.00000
     34     -24.9028      2.00000
     35     -24.4734      2.00000
     36     -24.4058      2.00000
     37     -24.2724      2.00000
     38     -24.2513      2.00000
     39     -24.2201      2.00000
     40     -24.1992      2.00000
     41     -24.1761      2.00000
     42     -24.0703      2.00000
     43     -23.9920      2.00000
     44     -21.2776      2.00000
     45     -21.2557      2.00000
     46     -21.1643      2.00000
     47     -21.1278      2.00000
     48     -21.0653      2.00000
     49     -20.9552      2.00000
     50     -20.9019      2.00000
     51     -20.8804      2.00000
     52     -20.8682      2.00000
     53     -20.8600      2.00000
     54     -20.8341      2.00000
     55     -20.8280      2.00000
     56     -20.7423      2.00000
     57     -20.6486      2.00000
     58     -20.5985      2.00000
     59     -20.5738      2.00000
     60     -20.5026      2.00000
     61     -20.4930      2.00000
     62       4.1882      2.00000
     63       4.6773      2.00000
     64       4.9006      2.00000
     65       5.2215      2.00000
     66       5.5031      2.00000
     67       5.7911      2.00000
     68       6.0858      2.00000
     69       6.5075      2.00000
     70       6.7795      2.00000
     71       6.8750      2.00000
     72       6.9140      2.00000
     73       6.9284      2.00000
     74       6.9751      2.00000
     75       7.0633      2.00000
     76       7.0986      2.00000
     77       7.1511      2.00000
     78       7.2011      2.00000
     79       7.2193      2.00000
     80       7.2758      2.00000
     81       7.3172      2.00000
     82       7.6204      2.00000
     83       7.6421      2.00000
     84       7.7140      2.00000
     85       7.7741      2.00000
     86       7.8086      2.00000
     87       7.8468      2.00000
     88       7.8814      2.00000
     89       7.9066      2.00000
     90       7.9197      2.00000
     91       7.9318      2.00000
     92       7.9485      2.00000
     93       8.0290      2.00000
     94       8.0545      2.00000
     95       8.0840      2.00000
     96       8.1183      2.00000
     97       8.1594      2.00000
     98       8.1808      2.00000
     99       8.2182      2.00000
    100       8.2453      2.00000
    101       8.3223      2.00000
    102       8.3486      2.00000
    103       8.3956      2.00000
    104       8.4480      2.00000
    105       8.4762      2.00000
    106       8.4870      2.00000
    107       8.5322      2.00000
    108       8.5624      2.00000
    109       8.9442      2.00000
    110      11.6446      0.00000
    111      11.6686      0.00000
    112      11.8704      0.00000
    113      11.9756      0.00000
    114      11.9967      0.00000
    115      12.0822      0.00000
    116      12.1374      0.00000
    117      12.2187      0.00000
    118      12.2406      0.00000
    119      12.2716      0.00000
    120      12.3542      0.00000
    121      12.3961      0.00000
    122      12.4290      0.00000
    123      12.5061      0.00000
    124      12.5553      0.00000
    125      12.6947      0.00000
    126      12.7490      0.00000
    127      12.8048      0.00000
    128      12.8835      0.00000


--------------------------------------------------------------------------------------------------------


 soft charge-density along one line, spin component           1
         0         1         2         3         4         5         6         7         8         9
 total charge-density along one line
 
 pseudopotential strength for first ion, spin component:           1
  5.777 -20.295  -0.001   0.001   0.000   0.002  -0.002  -0.001
-20.295   9.210  -0.002   0.001   0.000   0.000  -0.000  -0.000
 -0.001  -0.002  -9.750  -0.001  -0.003   5.990   0.001   0.003
  0.001   0.001  -0.001  -9.752  -0.001   0.001   5.992   0.001
  0.000   0.000  -0.003  -0.001  -9.752   0.003   0.001   5.992
  0.002   0.000   5.990   0.001   0.003   7.950  -0.001  -0.002
 -0.002  -0.000   0.001   5.992   0.001  -0.001   7.949  -0.001
 -0.001  -0.000   0.003   0.001   5.992  -0.002  -0.001   7.949
 -0.002  -0.001   0.000  -0.000  -0.001  -0.001   0.000   0.001
 -0.001  -0.000   0.001  -0.001  -0.000  -0.001   0.001   0.000
 -0.000  -0.000   0.000   0.001  -0.000  -0.001  -0.001   0.000
 -0.001  -0.000  -0.000   0.000   0.001   0.000  -0.001  -0.001
 -0.001  -0.000   0.001   0.000   0.000  -0.001   0.000  -0.000
 -0.003  -0.001   0.000  -0.000  -0.001  -0.001   0.000   0.002
 -0.001  -0.000   0.001  -0.001  -0.000  -0.001   0.002   0.000
 -0.001  -0.000   0.001   0.001  -0.000  -0.001  -0.001   0.000
 -0.001  -0.000  -0.000   0.000   0.001   0.000  -0.001  -0.001
 -0.001  -0.000   0.001   0.000   0.000  -0.001   0.000  -0.000
 total augmentation occupancy for first ion, spin component:           1
  1.995  -0.046   0.000  -0.000  -0.000   0.000  -0.000  -0.000  -0.005  -0.004  -0.001  -0.010  -0.001   0.005   0.003   0.001
 -0.046   1.311   0.001  -0.001  -0.002   0.001  -0.001   0.000  -0.026  -0.003  -0.002   0.002  -0.005   0.016  -0.003  -0.001
  0.000   0.001   1.996   0.000   0.000  -0.029  -0.001  -0.000  -0.007  -0.004   0.001   0.004   0.002   0.004   0.002  -0.001
 -0.000  -0.001   0.000   1.996   0.000  -0.001  -0.029  -0.002   0.004   0.003   0.000  -0.007   0.000  -0.003  -0.002  -0.000
 -0.000  -0.002   0.000   0.000   1.996  -0.000  -0.002  -0.029   0.002   0.004   0.001  -0.004  -0.001  -0.002  -0.003  -0.001
  0.000   0.001  -0.029  -0.001  -0.000   0.066   0.001   0.000   0.011   0.002  -0.002   0.000  -0.004  -0.006  -0.001   0.001
 -0.000  -0.001  -0.001  -0.029  -0.002   0.001   0.066   0.003   0.001  -0.001  -0.003   0.010   0.000  -0.001   0.001   0.001
 -0.000   0.000  -0.000  -0.002  -0.029   0.000   0.003   0.066  -0.000   0.001   0.001   0.001  -0.002   0.001  -0.001  -0.000
 -0.005  -0.026  -0.007   0.004   0.002   0.011   0.001  -0.000   3.335   0.106   0.045   0.018   0.001  -1.393  -0.074  -0.020
 -0.004  -0.003  -0.004   0.003   0.004   0.002  -0.001   0.001   0.106   3.335  -0.015  -0.070   0.027  -0.073  -1.393   0.006
 -0.001  -0.002   0.001   0.000   0.001  -0.002  -0.003   0.001   0.045  -0.015   2.657  -0.034   0.009  -0.019   0.006  -1.212
 -0.010   0.002   0.004  -0.007  -0.004   0.000   0.010   0.001   0.018  -0.070  -0.034   3.336  -0.063  -0.015   0.034   0.014
 -0.001  -0.005   0.002   0.000  -0.001  -0.004   0.000  -0.002   0.001   0.027   0.009  -0.063   2.667  -0.000  -0.012   0.000
  0.005   0.016   0.004  -0.003  -0.002  -0.006  -0.001   0.001  -1.393  -0.073  -0.019  -0.015  -0.000   0.594   0.043   0.009
  0.003  -0.003   0.002  -0.002  -0.003  -0.001   0.001  -0.001  -0.074  -1.393   0.006   0.034  -0.012   0.043   0.595  -0.003
  0.001  -0.001  -0.001  -0.000  -0.001   0.001   0.001  -0.000  -0.020   0.006  -1.212   0.014   0.000   0.009  -0.003   0.561
  0.007  -0.017  -0.003   0.004   0.002  -0.001  -0.006  -0.001  -0.015   0.034   0.014  -1.395   0.026   0.009  -0.017  -0.006
  0.001  -0.000  -0.001  -0.000   0.001   0.002   0.000   0.001  -0.000  -0.012   0.000   0.026  -1.212   0.000   0.005  -0.002


------------------------ aborting loop because EDIFF is reached ----------------------------------------


    CHARGE:  cpu time      0.0848: real time      0.0851
    FORLOC:  cpu time      0.0005: real time      0.0005
    FORNL :  cpu time      0.8147: real time      0.8174
    STRESS:  cpu time      1.0130: real time      1.0165
    FORCOR:  cpu time      0.0047: real time      0.0047
    FORHAR:  cpu time      0.0015: real time      0.0017
    MIXING:  cpu time      0.0005: real time      0.0005
    OFIELD:  cpu time      0.0000: real time      0.0000

  FORCE on cell =-STRESS in cart. coord.  units (eV):
  Direction    XX          YY          ZZ          XY          YZ          ZX
  --------------------------------------------------------------------------------------
  Alpha Z  1784.07396  1784.07396  1784.07396
  Ewald   -7262.26627 -7258.64287 -7280.78403   -10.53841     2.10768     6.32305
  Hartree  1241.10227  1244.10662  1225.47993   -10.88548     1.98294     6.38229
  E(xc)    -959.21033  -959.19281  -959.18745     0.04159    -0.00432    -0.01222
  Local    1605.22263  1600.22257  1639.30235    20.89635    -4.03785   -12.52636
  n-local  -274.23505  -276.85229  -274.69994     0.02223     0.09661     0.25141
  augment   574.68903   574.60194   574.60623     0.00319    -0.02703    -0.13124
  Kinetic  3267.31135  3268.30901  3267.62446     0.23849    -0.14682     0.12501
  Fock        0.00000     0.00000     0.00000     0.00000     0.00000     0.00000
  -------------------------------------------------------------------------------------
  Total     -23.31242   -23.37388   -23.58449    -0.22204    -0.02879     0.41194
  in kB    -131.10528  -131.45093  -132.63536    -1.24870    -0.16190     2.31667
  external pressure =     -131.73 kB  Pullay stress =        0.00 kB


 VOLUME and BASIS-vectors are now :
 -----------------------------------------------------------------------------
  energy-cutoff  :      250.00
  volume of cell :      284.89
      direct lattice vectors                 reciprocal lattice vectors
     6.580000000  0.000000000  0.000000000     0.151975684  0.000000000  0.000000000
     0.000000000  6.580000000  0.000000000     0.000000000  0.151975684  0.000000000
     0.000000000  0.000000000  6.580000000     0.000000000  0.000000000  0.151975684

  length of vectors
     6.580000000  6.580000000  6.580000000     0.151975684  0.151975684  0.151975684


 FORCES acting on ions
    electron-ion (+dipol)            ewald-force                    non-local-force                 convergence-correction
 -----------------------------------------------------------------------------------------------
   0.105E+02 -.105E+02 0.513E+02   -.102E+02 0.102E+02 -.510E+02   -.172E+00 0.436E-01 -.544E-01   0.441E-03 0.450E-03 -.430E-03
   -.204E+02 -.204E+02 -.204E+02   0.204E+02 0.204E+02 0.204E+02   -.107E+00 0.132E-01 0.146E-01   0.881E-03 0.349E-04 0.775E-03
   0.204E+02 -.204E+02 0.204E+02   -.204E+02 0.204E+02 -.204E+02   0.106E+00 0.138E-01 -.190E-01   -.881E-03 0.231E-04 -.794E-03
   0.105E+02 0.105E+02 -.513E+02   -.102E+02 -.102E+02 0.510E+02   -.166E+00 -.426E-01 0.543E-01   0.442E-03 -.436E-03 0.433E-03
   0.204E+02 0.204E+02 0.204E+02   -.204E+02 -.204E+02 -.204E+02   0.111E+00 -.106E-01 -.137E-01   -.895E-03 -.295E-04 -.799E-03
   -.105E+02 -.104E+02 -.513E+02   0.102E+02 0.102E+02 0.510E+02   0.166E+00 0.370E-01 0.555E-01   -.447E-03 0.447E-03 0.420E-03
   0.219E+02 0.220E+02 -.220E+02   -.220E+02 -.220E+02 0.220E+02   0.820E-01 -.271E-01 0.343E-01   -.924E-03 -.431E-04 0.872E-03
   0.113E+02 0.111E+02 0.551E+02   -.110E+02 -.110E+02 -.549E+02   -.682E-01 0.763E-01 0.235E-01   0.455E-03 -.447E-03 -.471E-03
   -.889E+01 0.888E+01 0.434E+02   0.863E+01 -.863E+01 -.431E+02   0.942E-01 0.529E-02 -.555E-01   -.392E-03 -.392E-03 -.363E-03
   -.173E+02 0.173E+02 -.173E+02   0.173E+02 -.173E+02 0.173E+02   -.452E-01 -.244E-01 0.294E-01   0.765E-03 -.122E-04 0.647E-03
   0.173E+02 -.173E+02 -.173E+02   -.173E+02 0.173E+02 0.173E+02   0.575E-01 0.126E-01 0.222E-01   -.779E-03 0.215E-04 0.656E-03
   -.112E+02 -.111E+02 0.551E+02   0.110E+02 0.110E+02 -.549E+02   -.589E-01 -.103E+00 0.591E-01   -.516E-03 0.425E-03 -.481E-03
   0.112E+02 -.111E+02 -.551E+02   -.110E+02 0.110E+02 0.549E+02   0.453E-01 -.105E+00 -.584E-01   0.559E-03 0.415E-03 0.484E-03
   -.220E+02 -.220E+02 0.220E+02   0.220E+02 0.220E+02 -.220E+02   0.482E-02 0.150E-01 -.248E-01   0.969E-03 0.655E-04 -.870E-03
   -.220E+02 0.220E+02 0.220E+02   0.220E+02 -.220E+02 -.220E+02   0.132E-01 -.211E-01 -.292E-01   0.967E-03 -.346E-04 -.871E-03
   -.112E+02 0.111E+02 -.551E+02   0.110E+02 -.110E+02 0.549E+02   -.516E-01 0.104E+00 -.524E-01   -.537E-03 -.432E-03 0.478E-03
 -----------------------------------------------------------------------------------------------
   -.960E-02 0.129E-01 0.148E-01   0.185E-12 0.142E-13 -.142E-13   0.951E-02 -.130E-01 -.145E-01   0.107E-03 0.557E-04 -.311E-03
 
 
 POSITION                                       TOTAL-FORCE (eV/Angst)
 -----------------------------------------------------------------------------------
      0.00000      3.29000      0.00000         0.113934     -0.219546      0.234571
      1.64500      4.93500      4.93500        -0.093338     -0.028491     -0.025750
      4.93500      4.93500      1.64500         0.100352     -0.029356      0.025531
      0.00000      0.00000      3.29000         0.113288      0.209259     -0.249342
      4.93500      1.64500      1.64500         0.107377      0.027087      0.024298
      3.29000      3.29000      3.29000        -0.102962     -0.206417     -0.230005
      4.93500      1.64500      4.93500        -0.027121      0.031288     -0.025857
      0.00000      0.00000      0.00000         0.207458      0.172285      0.202005
      3.29000      0.00000      0.00000        -0.171336      0.258808      0.242814
      1.64500      1.64500      4.93500        -0.083476      0.003977     -0.001494
      4.93500      4.93500      4.93500         0.053968     -0.017000     -0.015270
      3.29000      3.29000      0.00000        -0.246405     -0.200095      0.235026
      0.00000      3.29000      3.29000         0.253613     -0.216668     -0.239272
      1.64500      4.93500      1.64500         0.009781     -0.022097      0.021813
      1.64500      1.64500      1.64500         0.010770      0.026842      0.024612
      3.29000      0.00000      3.29000        -0.245902      0.210124     -0.223680
 -----------------------------------------------------------------------------------
    total drift:                                0.000019      0.000016      0.000015


--------------------------------------------------------------------------------------------------------



  FREE ENERGIE OF THE ION-ELECTRON SYSTEM (eV)
  ---------------------------------------------------
  free  energy   TOTEN  =      -184.03258577 eV

  energy  without entropy=     -184.03038538  energy(sigma->0) =     -184.03148557
 


--------------------------------------------------------------------------------------------------------


    POTLOK:  cpu time      0.0063: real time      0.0063


--------------------------------------------------------------------------------------------------------


     LOOP+:  cpu time     85.7258: real time     86.3829
    4ORBIT:  cpu time      0.0000: real time      0.0000

 total amount of memory used by VASP MPI-rank0    48253. kBytes
=======================================================================

   base      :      30000. kBytes
   nonl-proj :       8332. kBytes
   fftplans  :        456. kBytes
   grid      :        919. kBytes
   one-center:         31. kBytes
   wavefun   :       8515. kBytes
 
  
  
 General timing and accounting informations for this job:
 ========================================================
  
                  Total CPU time used (sec):       89.391
                            User time (sec):       88.065
                          System time (sec):        1.327
                         Elapsed time (sec):       90.525
  
                   Maximum memory used (kb):       90464.
                   Average memory used (kb):          N/A
  
                          Minor page faults:        11516
                          Major page faults:            0
                 Voluntary context switches:          315
