 vasp.6.3.1 04May22 (build Jul 26 2022 04:02:40) complex                        
  
 executed on             LinuxIFC date 2023.11.30  03:54:32
 running on   48 total cores
 distrk:  each k-point on   48 cores,    1 groups
 distr:  one band on NCORE=  12 cores,    4 groups


--------------------------------------------------------------------------------------------------------


 INCAR:
   ISTART = 0
   NWRITE = 2
   PREC = Accurate
   ENCUT = 250
   GGA = PE
   NSW = 0
   ISIF = 2
   ISYM = 2
   NBLOCK = 1
   KBLOCK = 1
   IBRION = -1
   NELM = 80
   EDIFF = 1E-08
   EDIFFG = -0.01
   ALGO = Normal
   LDIAG = .TRUE.
   LREAL = .FALSE.
   ISMEAR = 0
   SIGMA = 0.02
   ICHARG = 2
   LPLANE = .TRUE.
   NPAR = 4
   LSCALU = .FALSE.
   NSIM = 4
   LWAVE = .FALSE.
   LCHARG = .FALSE.
   ICORELEVEL = 1

 POTCAR:    PAW_PBE Nb_sv 25May2007               
 POTCAR:    PAW_PBE Mo_sv 02Feb2006               
 POTCAR:    PAW_PBE Ta_pv 07Sep2000               
 POTCAR:    PAW_PBE W_sv 04Sep2015                
 POTCAR:    PAW_PBE Nb_sv 25May2007               
   SHA256 =  0e8fc07c9fcd1164cf2ade22d0399fd28f85e91cd773dfa6cf24839a48c95e24 Nb_sv/POTCAR          
   COPYR  = (c) Copyright 25May2007 Georg Kresse                                                    
   COPYR  = This file is part of the software VASP. Any use, copying, and all other rights are regul
   COPYR  = If you do not have a valid VASP license, you may not use, copy or distribute this file. 
   VRHFIN =Nb: 4p5s4d                                                                               
   LEXCH  = PE                                                                                      
   EATOM  =  1555.1913 eV,  114.3033 Ry                                                             
                                                                                                    
   TITEL  = PAW_PBE Nb_sv 25May2007                                                                 
   LULTRA =        F    use ultrasoft PP ?                                                          
   IUNSCR =        1    unscreen: 0-lin 1-nonlin 2-no                                               
   RPACOR =    1.800    partial core radius                                                         
   POMASS =   92.910; ZVAL   =   13.000    mass and valenz                                          
   RCORE  =    2.400    outmost cutoff radius                                                       
   RWIGS  =    2.400; RWIGS  =    1.270    wigner-seitz radius (au A)                               
   ENMAX  =  293.235; ENMIN  =  219.927 eV                                                          
   ICORE  =        3    local potential                                                             
   LCOR   =        T    correct aug charges                                                         
   LPAW   =        T    paw PP                                                                      
   EAUG   =  455.659                                                                                
   DEXC   =    0.000                                                                                
   RMAX   =    2.456    core radius for proj-oper                                                   
   RAUG   =    1.300    factor for augmentation sphere                                              
   RDEP   =    2.451    radius for radial grids                                                     
   RDEPT  =    1.956    core radius for aug-charge                                                  
                                                                                                    
   Atomic configuration                                                                             
   11 entries                                                                                       
     n  l   j            E        occ.                                                              
     1  0  0.50    -18805.2457   2.0000                                                             
     2  0  0.50     -2630.2869   2.0000                                                             
     2  1  1.50     -2348.4046   6.0000                                                             
     3  0  0.50      -438.8757   2.0000                                                             
     3  1  1.50      -346.7588   6.0000                                                             
     3  2  2.50      -196.2560  10.0000                                                             
     4  0  0.50       -58.3859   2.0000                                                             
     5  0  0.50        -3.9816   1.0000                                                             
     4  1  1.50       -34.5141   6.0000                                                             
     4  2  2.50        -3.0408   4.0000                                                             
     4  3  2.50        -1.3606   0.0000                                                             
   Description                                                                                      
     l       E           TYP  RCUT    TYP  RCUT                                                     
     0    -58.3859094     23  2.200                                                                 
     0     -3.9816262     23  2.200                                                                 
     1    -34.5140738     23  2.200                                                                 
     1     13.6058260     23  2.200                                                                 
     2     -3.0408010     23  2.200                                                                 
     2     -0.1283038     23  2.200                                                                 
     3     -1.3605826     23  2.400                                                                 
  local pseudopotential read in
  partial core-charges read in
  partial kinetic energy density read in
  atomic valenz-charges read in
  non local Contribution for L=           0  read in
    real space projection operators read in
  non local Contribution for L=           0  read in
    real space projection operators read in
  non local Contribution for L=           1  read in
    real space projection operators read in
  non local Contribution for L=           1  read in
    real space projection operators read in
  non local Contribution for L=           2  read in
    real space projection operators read in
  non local Contribution for L=           2  read in
    real space projection operators read in
    PAW grid and wavefunctions read in
 
   number of l-projection  operators is LMAX  =           6
   number of lm-projection operators is LMMAX =          18
 
 POTCAR:    PAW_PBE Mo_sv 02Feb2006               
   SHA256 =  2731df97e41766cc617548c5a8267718fdef1f509ac6bafa01e745abea2bdfaa Mo_sv/POTCAR          
   COPYR  = (c) Copyright 02Feb2006 Georg Kresse                                                    
   COPYR  = This file is part of the software VASP. Any use, copying, and all other rights are regul
   COPYR  = If you do not have a valid VASP license, you may not use, copy or distribute this file. 
   VRHFIN =Mo: 4p5s4d                                                                               
   LEXCH  = PE                                                                                      
   EATOM  =  1862.2866 eV,  136.8742 Ry                                                             
                                                                                                    
   TITEL  = PAW_PBE Mo_sv 02Feb2006                                                                 
   LULTRA =        F    use ultrasoft PP ?                                                          
   IUNSCR =        1    unscreen: 0-lin 1-nonlin 2-no                                               
   RPACOR =    2.200    partial core radius                                                         
   POMASS =   95.940; ZVAL   =   14.000    mass and valenz                                          
   RCORE  =    2.500    outmost cutoff radius                                                       
   RWIGS  =    2.750; RWIGS  =    1.455    wigner-seitz radius (au A)                               
   ENMAX  =  242.676; ENMIN  =  182.007 eV                                                          
   ICORE  =        3    local potential                                                             
   LCOR   =        T    correct aug charges                                                         
   LPAW   =        T    paw PP                                                                      
   EAUG   =  446.014                                                                                
   DEXC   =    0.000                                                                                
   RMAX   =    2.563    core radius for proj-oper                                                   
   RAUG   =    1.300    factor for augmentation sphere                                              
   RDEP   =    2.641    radius for radial grids                                                     
   RDEPT  =    2.031    core radius for aug-charge                                                  
                                                                                                    
   Atomic configuration                                                                             
   11 entries                                                                                       
     n  l   j            E        occ.                                                              
     1  0  0.50    -19819.0341   2.0000                                                             
     2  0  0.50     -2799.0127   2.0000                                                             
     2  1  1.50     -2502.0276   6.0000                                                             
     3  0  0.50      -476.4449   2.0000                                                             
     3  1  1.50      -379.1496   6.0000                                                             
     3  2  2.50      -220.9367  10.0000                                                             
     4  0  0.50       -64.3378   2.0000                                                             
     5  0  0.50        -4.0862   1.0000                                                             
     4  1  1.50       -38.4773   6.0000                                                             
     4  2  2.50        -3.7535   5.0000                                                             
     4  3  2.50        -1.3606   0.0000                                                             
   Description                                                                                      
     l       E           TYP  RCUT    TYP  RCUT                                                     
     0    -64.3377829     23  2.100                                                                 
     0     -4.0861640     23  2.400                                                                 
     1    -38.4772993     23  2.100                                                                 
     1     13.6058260     23  2.100                                                                 
     2     -3.7534941     23  2.400                                                                 
     2     -5.1140767     23  2.400                                                                 
     3     -4.0817478     23  2.500                                                                 
  local pseudopotential read in
  partial core-charges read in
  partial kinetic energy density read in
  atomic valenz-charges read in
  non local Contribution for L=           0  read in
    real space projection operators read in
  non local Contribution for L=           0  read in
    real space projection operators read in
  non local Contribution for L=           1  read in
    real space projection operators read in
  non local Contribution for L=           1  read in
    real space projection operators read in
  non local Contribution for L=           2  read in
    real space projection operators read in
  non local Contribution for L=           2  read in
    real space projection operators read in
    PAW grid and wavefunctions read in
 
   number of l-projection  operators is LMAX  =           6
   number of lm-projection operators is LMMAX =          18
 
 POTCAR:    PAW_PBE Ta_pv 07Sep2000               
   SHA256 =  00d0a14a36c127416459414afb8617d9754996fffa60a2465888e660b20a452f Ta_pv/POTCAR          
   COPYR  = (c) Copyright 07Sep2000 Georg Kresse                                                    
   COPYR  = This file is part of the software VASP. Any use, copying, and all other rights are regul
   COPYR  = If you do not have a valid VASP license, you may not use, copy or distribute this file. 
   VRHFIN =Ta:  5p6s5d                                                                              
   LEXCH  = PE                                                                                      
   EATOM  =  1047.1984 eV,   76.9669 Ry                                                             
                                                                                                    
   TITEL  = PAW_PBE Ta_pv 07Sep2000                                                                 
   LULTRA =        F    use ultrasoft PP ?                                                          
   IUNSCR =        1    unscreen: 0-lin 1-nonlin 2-no                                               
   RPACOR =    2.330    partial core radius                                                         
   POMASS =  180.948; ZVAL   =   11.000    mass and valenz                                          
   RCORE  =    2.500    outmost cutoff radius                                                       
   RWIGS  =    2.840; RWIGS  =    1.503    wigner-seitz radius (au A)                               
   ENMAX  =  223.667; ENMIN  =  167.750 eV                                                          
   RCLOC  =    2.205    cutoff for local pot                                                        
   LCOR   =        T    correct aug charges                                                         
   LPAW   =        T    paw PP                                                                      
   EAUG   =  377.421                                                                                
   DEXC   =    0.000                                                                                
   RMAX   =    2.551    core radius for proj-oper                                                   
   RAUG   =    1.300    factor for augmentation sphere                                              
   RDEP   =    2.526    radius for radial grids                                                     
   RDEPT  =    2.132    core radius for aug-charge                                                  
                                                                                                    
   Atomic configuration                                                                             
   15 entries                                                                                       
     n  l   j            E        occ.                                                              
     1  0  0.50    -67341.2801   2.0000                                                             
     2  0  0.50    -11566.9369   2.0000                                                             
     2  1  1.50    -10134.1175   6.0000                                                             
     3  0  0.50     -2648.5614   2.0000                                                             
     3  1  1.50     -2222.6006   6.0000                                                             
     3  2  2.50     -1726.3114  10.0000                                                             
     4  0  0.50      -538.6957   2.0000                                                             
     4  1  1.50      -399.0125   6.0000                                                             
     4  2  2.50      -220.3955  10.0000                                                             
     4  3  3.50       -23.0371  14.0000                                                             
     5  0  0.50       -71.2900   2.0000                                                             
     5  1  1.50       -37.8224   6.0000                                                             
     5  2  2.50        -2.6455   4.0000                                                             
     6  0  0.50        -4.9623   1.0000                                                             
     5  3  2.50        -1.3606   0.0000                                                             
   Description                                                                                      
     l       E           TYP  RCUT    TYP  RCUT                                                     
     1    -37.8224449     23  2.500                                                                 
     1      1.3605826     23  2.500                                                                 
     2     -2.6454718     23  2.500                                                                 
     2     -0.6258570     23  2.500                                                                 
     0     -4.9622674     23  2.500                                                                 
     0      4.7531427     23  2.500                                                                 
  local pseudopotential read in
  partial core-charges read in
  partial kinetic energy density read in
  atomic valenz-charges read in
  non local Contribution for L=           1  read in
    real space projection operators read in
  non local Contribution for L=           1  read in
    real space projection operators read in
  non local Contribution for L=           2  read in
    real space projection operators read in
  non local Contribution for L=           2  read in
    real space projection operators read in
  non local Contribution for L=           0  read in
    real space projection operators read in
  non local Contribution for L=           0  read in
    real space projection operators read in
    PAW grid and wavefunctions read in
 
   number of l-projection  operators is LMAX  =           6
   number of lm-projection operators is LMMAX =          18
 
 POTCAR:    PAW_PBE W_sv 04Sep2015                
   SHA256 =  931c2d770f65867ef30f3db3421922900fc0890ebac5c3e12f63b6a2064023d7 W_sv/POTCAR           
   COPYR  = (c) Copyright 04Sep2015 Georg Kresse                                                    
   COPYR  = This file is part of the software VASP. Any use, copying, and all other rights are regul
   COPYR  = If you do not have a valid VASP license, you may not use, copy or distribute this file. 
   VRHFIN =W : 5p6s5d                                                                               
   LEXCH  = PE                                                                                      
   EATOM  =  1865.5791 eV,  137.1162 Ry                                                             
                                                                                                    
   TITEL  = PAW_PBE W_sv 04Sep2015                                                                  
   LULTRA =        F    use ultrasoft PP ?                                                          
   IUNSCR =        1    unscreen: 0-lin 1-nonlin 2-no                                               
   RPACOR =    2.330    partial core radius                                                         
   POMASS =  183.850; ZVAL   =   14.000    mass and valenz                                          
   RCORE  =    2.500    outmost cutoff radius                                                       
   RWIGS  =    2.750; RWIGS  =    1.455    wigner-seitz radius (au A)                               
   ENMAX  =  223.057; ENMIN  =  167.293 eV                                                          
   ICORE  =        3    local potential                                                             
   LCOR   =        T    correct aug charges                                                         
   LPAW   =        T    paw PP                                                                      
   EAUG   =  373.438                                                                                
   DEXC   =    0.000                                                                                
   RMAX   =    2.565    core radius for proj-oper                                                   
   RAUG   =    1.300    factor for augmentation sphere                                              
   RDEP   =    2.539    radius for radial grids                                                     
   RDEPT  =    2.126    core radius for aug-charge                                                  
                                                                                                    
   Atomic configuration                                                                             
   15 entries                                                                                       
     n  l   j            E        occ.                                                              
     1  0  0.50    -69465.5834   2.0000                                                             
     2  0  0.50    -11986.2640   2.0000                                                             
     2  1  1.50    -10479.8613   6.0000                                                             
     3  0  0.50     -2759.0756   2.0000                                                             
     3  1  1.50     -2313.1855   6.0000                                                             
     3  2  2.50     -1801.1183  10.0000                                                             
     4  0  0.50      -567.6789   2.0000                                                             
     4  1  1.50      -421.4692   6.0000                                                             
     4  2  2.50      -236.3471  10.0000                                                             
     4  3  3.50       -31.2665  14.0000                                                             
     5  0  0.50       -77.1084   2.0000                                                             
     6  0  0.50        -5.1438   1.0000                                                             
     5  1  1.50       -41.3856   6.0000                                                             
     5  2  2.50        -3.3185   5.0000                                                             
     5  3  2.50        -1.3606   0.0000                                                             
   Description                                                                                      
     l       E           TYP  RCUT    TYP  RCUT                                                     
     0    -77.1084470     23  2.100                                                                 
     0     -5.1437956     23  2.300                                                                 
     1    -41.3855615     23  2.500                                                                 
     1     -2.7211652     23  2.500                                                                 
     2     -3.3185025     23  2.500                                                                 
     2     -1.5965151     23  2.500                                                                 
     3     -1.3605826     23  2.500                                                                 
  local pseudopotential read in
  partial core-charges read in
  partial kinetic energy density read in
  kinetic energy density of atom read in
  atomic valenz-charges read in
  non local Contribution for L=           0  read in
    real space projection operators read in
  non local Contribution for L=           0  read in
    real space projection operators read in
  non local Contribution for L=           1  read in
    real space projection operators read in
  non local Contribution for L=           1  read in
    real space projection operators read in
  non local Contribution for L=           2  read in
    real space projection operators read in
  non local Contribution for L=           2  read in
    real space projection operators read in
    PAW grid and wavefunctions read in
 
   number of l-projection  operators is LMAX  =           6
   number of lm-projection operators is LMMAX =          18
 
  PAW_PBE Nb_sv 25May2007               :
 energy of atom  1       EATOM=-1555.1913
 kinetic energy error for atom=    0.2155 (will be added to EATOM!!)
  PAW_PBE Mo_sv 02Feb2006               :
 energy of atom  2       EATOM=-1862.2866
 kinetic energy error for atom=    0.1102 (will be added to EATOM!!)
  PAW_PBE Ta_pv 07Sep2000               :
 energy of atom  3       EATOM=-1047.1984
 kinetic energy error for atom=    0.0394 (will be added to EATOM!!)
  PAW_PBE W_sv 04Sep2015                :
 energy of atom  4       EATOM=-1865.5791
 kinetic energy error for atom=    0.0589 (will be added to EATOM!!)
 
 
 POSCAR: Nb-Mo-Ta-W alloy
  positions in direct lattice
  No initial velocities read in
 exchange correlation table for  LEXCH =        8
   RHO(1)=    0.500       N(1)  =     2000
   RHO(2)=  100.500       N(2)  =     4000
 


--------------------------------------------------------------------------------------------------------


 ion  position               nearest neighbor table
   1  0.750  0.250  0.750-   2 2.85   3 2.85   4 2.85   9 2.85  11 2.85  12 2.85  13 2.85  15 2.85

   2  0.500  0.000  0.000-   1 2.85   5 2.85   6 2.85   7 2.85   8 2.85  10 2.85  14 2.85  16 2.85
                            11 3.29  12 3.29  11 3.29  12 3.29
   3  0.000  0.000  0.500-   1 2.85   5 2.85   6 2.85   7 2.85   8 2.85  10 2.85  14 2.85  16 2.85
                            11 3.29  12 3.29  12 3.29  11 3.29
   4  0.000  0.500  0.000-   1 2.85   5 2.85   6 2.85   7 2.85   8 2.85  10 2.85  14 2.85  16 2.85
                            12 3.29  15 3.29  13 3.29  15 3.29  12 3.29  13 3.29
   5  0.750  0.250  0.250-   2 2.85   3 2.85   4 2.85   9 2.85  11 2.85  12 2.85  13 2.85  15 2.85
                             7 3.29  10 3.29  10 3.29   7 3.29
   6  0.750  0.750  0.750-   2 2.85   3 2.85   4 2.85   9 2.85  11 2.85  12 2.85  13 2.85  15 2.85
                             8 3.29  10 3.29  10 3.29   8 3.29
   7  0.250  0.250  0.250-   2 2.85   3 2.85   4 2.85   9 2.85  11 2.85  12 2.85  13 2.85  15 2.85
                            14 3.29   5 3.29  16 3.29  14 3.29  16 3.29   5 3.29
   8  0.250  0.750  0.750-   2 2.85   3 2.85   4 2.85   9 2.85  11 2.85  12 2.85  13 2.85  15 2.85
                            14 3.29   6 3.29  16 3.29  16 3.29  14 3.29   6 3.29
   9  0.500  0.500  0.500-   1 2.85   5 2.85   6 2.85   7 2.85   8 2.85  10 2.85  14 2.85  16 2.85
                            11 3.29  15 3.29  13 3.29  13 3.29  11 3.29  15 3.29
  10  0.750  0.750  0.250-   2 2.85   3 2.85   4 2.85   9 2.85  11 2.85  12 2.85  13 2.85  15 2.85
                             6 3.29   5 3.29  16 3.29   6 3.29   5 3.29  16 3.29
  11  0.500  0.000  0.500-   1 2.85   5 2.85   6 2.85   7 2.85   8 2.85  10 2.85  14 2.85  16 2.85
                             2 3.29   3 3.29   9 3.29   2 3.29   9 3.29   3 3.29
  12  0.000  0.000  0.000-   1 2.85   5 2.85   6 2.85   7 2.85   8 2.85  10 2.85  14 2.85  16 2.85
                             3 3.29   4 3.29   2 3.29   3 3.29   4 3.29   2 3.29
  13  0.500  0.500  0.000-   1 2.85   5 2.85   6 2.85   7 2.85   8 2.85  10 2.85  14 2.85  16 2.85
                             9 3.29   4 3.29   9 3.29   4 3.29
  14  0.250  0.250  0.750-   2 2.85   3 2.85   4 2.85   9 2.85  11 2.85  12 2.85  13 2.85  15 2.85
                             8 3.29   7 3.29   7 3.29   8 3.29
  15  0.000  0.500  0.500-   1 2.85   5 2.85   6 2.85   7 2.85   8 2.85  10 2.85  14 2.85  16 2.85
                             9 3.29   4 3.29   4 3.29   9 3.29
  16  0.250  0.750  0.250-   2 2.85   3 2.85   4 2.85   9 2.85  11 2.85  12 2.85  13 2.85  15 2.85
                             7 3.29  10 3.29   8 3.29   8 3.29   7 3.29  10 3.29
 
  LATTYP: Found a simple cubic cell.
 ALAT       =     6.5800000000
  
  Lattice vectors:
  
 A1 = (   6.5800000000,   0.0000000000,   0.0000000000)
 A2 = (   0.0000000000,   6.5800000000,   0.0000000000)
 A3 = (   0.0000000000,   0.0000000000,   6.5800000000)


Analysis of symmetry for initial positions (statically):
=====================================================================
 Subroutine PRICEL returns:
 Original cell was already a primitive cell.
 

 Routine SETGRP: Setting up the symmetry group for a 
 simple cubic supercell.


 Subroutine GETGRP returns: Found  1 space group operations
 (whereof  1 operations were pure point group operations)
 out of a pool of 48 trial point group operations.


The static configuration has the point symmetry C_1 .


Analysis of symmetry for dynamics (positions and initial velocities):
=====================================================================
 Subroutine PRICEL returns:
 Original cell was already a primitive cell.
 

 Routine SETGRP: Setting up the symmetry group for a 
 simple cubic supercell.


 Subroutine GETGRP returns: Found  1 space group operations
 (whereof  1 operations were pure point group operations)
 out of a pool of 48 trial point group operations.


The dynamic configuration has the point symmetry C_1 .


 Subroutine INISYM returns: Found  1 space group operations
 (whereof  1 operations are pure point group operations),
 and found     1 'primitive' translations


----------------------------------------------------------------------------------------

                                     Primitive cell                                     

  volume of cell :     284.8903

  direct lattice vectors                    reciprocal lattice vectors
     6.580000000  0.000000000  0.000000000     0.151975684  0.000000000  0.000000000
     0.000000000  6.580000000  0.000000000     0.000000000  0.151975684  0.000000000
     0.000000000  0.000000000  6.580000000     0.000000000  0.000000000  0.151975684

  length of vectors
     6.580000000  6.580000000  6.580000000     0.151975684  0.151975684  0.151975684

  position of ions in fractional coordinates (direct lattice)
     0.750000000  0.250000000  0.750000000
     0.500000000  0.000000000  0.000000000
     0.000000000  0.000000000  0.500000000
     0.000000000  0.500000000  0.000000000
     0.750000000  0.250000000  0.250000000
     0.750000000  0.750000000  0.750000000
     0.250000000  0.250000000  0.250000000
     0.250000000  0.750000000  0.750000000
     0.500000000  0.500000000  0.500000000
     0.750000000  0.750000000  0.250000000
     0.500000000  0.000000000  0.500000000
     0.000000000  0.000000000  0.000000000
     0.500000000  0.500000000  0.000000000
     0.250000000  0.250000000  0.750000000
     0.000000000  0.500000000  0.500000000
     0.250000000  0.750000000  0.250000000

  ion indices of the primitive-cell ions
   primitive index   ion index
                 1           1
                 2           2
                 3           3
                 4           4
                 5           5
                 6           6
                 7           7
                 8           8
                 9           9
                10          10
                11          11
                12          12
                13          13
                14          14
                15          15
                16          16

----------------------------------------------------------------------------------------

 
 
 KPOINTS: K-Spacing Value to Generate K-Mesh: 0.03

Automatic generation of k-mesh.
 Grid dimensions read from file:
 generate k-points for:    5    5    5

 Generating k-lattice:

  Cartesian coordinates                     Fractional coordinates (reciprocal lattice)
     0.030395137  0.000000000  0.000000000     0.200000000  0.000000000  0.000000000
     0.000000000  0.030395137  0.000000000     0.000000000  0.200000000  0.000000000
     0.000000000  0.000000000  0.030395137     0.000000000  0.000000000  0.200000000

  Length of vectors
     0.030395137  0.030395137  0.030395137

  Shift w.r.t. Gamma in fractional coordinates (k-lattice)
     0.000000000  0.000000000  0.000000000

 
 Subroutine IBZKPT returns following result:
 ===========================================
 
 Found     63 irreducible k-points:
 
 Following reciprocal coordinates:
            Coordinates               Weight
  0.000000  0.000000  0.000000      1.000000
  0.200000  0.000000  0.000000      2.000000
  0.000000  0.200000  0.000000      2.000000
  0.000000  0.000000  0.200000      2.000000
  0.400000  0.000000  0.000000      2.000000
  0.000000  0.400000  0.000000      2.000000
  0.000000  0.000000  0.400000      2.000000
  0.200000  0.200000  0.000000      2.000000
  0.000000  0.200000  0.200000      2.000000
  0.200000  0.000000  0.200000      2.000000
 -0.200000  0.200000  0.000000      2.000000
 -0.200000  0.000000  0.200000      2.000000
  0.000000 -0.200000  0.200000      2.000000
  0.400000  0.200000  0.000000      2.000000
  0.000000  0.400000  0.200000      2.000000
  0.200000  0.000000  0.400000      2.000000
 -0.200000  0.400000  0.000000      2.000000
 -0.400000  0.000000  0.200000      2.000000
  0.000000  0.200000  0.400000      2.000000
  0.000000 -0.400000  0.200000      2.000000
 -0.200000  0.000000  0.400000      2.000000
  0.400000  0.000000  0.200000      2.000000
  0.000000 -0.200000  0.400000      2.000000
  0.400000 -0.200000  0.000000      2.000000
  0.200000  0.400000  0.000000      2.000000
  0.400000  0.400000  0.000000      2.000000
  0.000000  0.400000  0.400000      2.000000
  0.400000  0.000000  0.400000      2.000000
 -0.400000  0.400000  0.000000      2.000000
 -0.400000  0.000000  0.400000      2.000000
  0.000000 -0.400000  0.400000      2.000000
  0.200000  0.200000  0.200000      2.000000
 -0.200000  0.200000  0.200000      2.000000
 -0.200000 -0.200000  0.200000      2.000000
  0.200000 -0.200000  0.200000      2.000000
  0.400000  0.200000  0.200000      2.000000
  0.200000  0.400000  0.200000      2.000000
  0.200000  0.200000  0.400000      2.000000
 -0.200000  0.400000  0.200000      2.000000
 -0.400000  0.200000  0.200000      2.000000
 -0.200000  0.200000  0.400000      2.000000
 -0.400000 -0.200000  0.200000      2.000000
 -0.200000 -0.400000  0.200000      2.000000
 -0.200000 -0.200000  0.400000      2.000000
  0.200000 -0.400000  0.200000      2.000000
  0.400000 -0.200000  0.200000      2.000000
  0.200000 -0.200000  0.400000      2.000000
  0.400000  0.400000  0.200000      2.000000
  0.200000  0.400000  0.400000      2.000000
  0.400000  0.200000  0.400000      2.000000
 -0.400000  0.400000  0.200000      2.000000
 -0.400000  0.200000  0.400000      2.000000
 -0.200000  0.400000  0.400000      2.000000
 -0.400000 -0.400000  0.200000      2.000000
 -0.200000 -0.400000  0.400000      2.000000
 -0.400000 -0.200000  0.400000      2.000000
  0.400000 -0.400000  0.200000      2.000000
  0.400000 -0.200000  0.400000      2.000000
  0.200000 -0.400000  0.400000      2.000000
  0.400000  0.400000  0.400000      2.000000
 -0.400000  0.400000  0.400000      2.000000
 -0.400000 -0.400000  0.400000      2.000000
  0.400000 -0.400000  0.400000      2.000000
 
 Following cartesian coordinates:
            Coordinates               Weight
  0.000000  0.000000  0.000000      1.000000
  0.030395  0.000000  0.000000      2.000000
  0.000000  0.030395  0.000000      2.000000
  0.000000  0.000000  0.030395      2.000000
  0.060790  0.000000  0.000000      2.000000
  0.000000  0.060790  0.000000      2.000000
  0.000000  0.000000  0.060790      2.000000
  0.030395  0.030395  0.000000      2.000000
  0.000000  0.030395  0.030395      2.000000
  0.030395  0.000000  0.030395      2.000000
 -0.030395  0.030395  0.000000      2.000000
 -0.030395  0.000000  0.030395      2.000000
  0.000000 -0.030395  0.030395      2.000000
  0.060790  0.030395  0.000000      2.000000
  0.000000  0.060790  0.030395      2.000000
  0.030395  0.000000  0.060790      2.000000
 -0.030395  0.060790  0.000000      2.000000
 -0.060790  0.000000  0.030395      2.000000
  0.000000  0.030395  0.060790      2.000000
  0.000000 -0.060790  0.030395      2.000000
 -0.030395  0.000000  0.060790      2.000000
  0.060790  0.000000  0.030395      2.000000
  0.000000 -0.030395  0.060790      2.000000
  0.060790 -0.030395  0.000000      2.000000
  0.030395  0.060790  0.000000      2.000000
  0.060790  0.060790  0.000000      2.000000
  0.000000  0.060790  0.060790      2.000000
  0.060790  0.000000  0.060790      2.000000
 -0.060790  0.060790  0.000000      2.000000
 -0.060790  0.000000  0.060790      2.000000
  0.000000 -0.060790  0.060790      2.000000
  0.030395  0.030395  0.030395      2.000000
 -0.030395  0.030395  0.030395      2.000000
 -0.030395 -0.030395  0.030395      2.000000
  0.030395 -0.030395  0.030395      2.000000
  0.060790  0.030395  0.030395      2.000000
  0.030395  0.060790  0.030395      2.000000
  0.030395  0.030395  0.060790      2.000000
 -0.030395  0.060790  0.030395      2.000000
 -0.060790  0.030395  0.030395      2.000000
 -0.030395  0.030395  0.060790      2.000000
 -0.060790 -0.030395  0.030395      2.000000
 -0.030395 -0.060790  0.030395      2.000000
 -0.030395 -0.030395  0.060790      2.000000
  0.030395 -0.060790  0.030395      2.000000
  0.060790 -0.030395  0.030395      2.000000
  0.030395 -0.030395  0.060790      2.000000
  0.060790  0.060790  0.030395      2.000000
  0.030395  0.060790  0.060790      2.000000
  0.060790  0.030395  0.060790      2.000000
 -0.060790  0.060790  0.030395      2.000000
 -0.060790  0.030395  0.060790      2.000000
 -0.030395  0.060790  0.060790      2.000000
 -0.060790 -0.060790  0.030395      2.000000
 -0.030395 -0.060790  0.060790      2.000000
 -0.060790 -0.030395  0.060790      2.000000
  0.060790 -0.060790  0.030395      2.000000
  0.060790 -0.030395  0.060790      2.000000
  0.030395 -0.060790  0.060790      2.000000
  0.060790  0.060790  0.060790      2.000000
 -0.060790  0.060790  0.060790      2.000000
 -0.060790 -0.060790  0.060790      2.000000
  0.060790 -0.060790  0.060790      2.000000
 


--------------------------------------------------------------------------------------------------------




 Dimension of arrays:
   k-points           NKPTS =     63   k-points in BZ     NKDIM =     63   number of bands    NBANDS=    124
   number of dos      NEDOS =    301   number of ions     NIONS =     16
   non local maximal  LDIM  =      6   non local SUM 2l+1 LMDIM =     18
   total plane-waves  NPLWV =  46656
   max r-space proj   IRMAX =      1   max aug-charges    IRDMAX=   9546
   dimension x,y,z NGX =    36 NGY =   36 NGZ =   36
   dimension x,y,z NGXF=    72 NGYF=   72 NGZF=   72
   support grid    NGXF=    72 NGYF=   72 NGZF=   72
   ions per type =               3   4   5   4
   NGX,Y,Z   is equivalent  to a cutoff of   9.10,  9.10,  9.10 a.u.
   NGXF,Y,Z  is equivalent  to a cutoff of  18.19, 18.19, 18.19 a.u.

 SYSTEM =  unknown system                          
 POSCAR =  Nb-Mo-Ta-W alloy                        

 Startparameter for this run:
   NWRITE =      2    write-flag & timer
   PREC   = accura    normal or accurate (medium, high low for compatibility)
   ISTART =      0    job   : 0-new  1-cont  2-samecut
   ICHARG =      2    charge: 1-file 2-atom 10-const
   ISPIN  =      1    spin polarized calculation?
   LNONCOLLINEAR =      F non collinear calculations
   LSORBIT =      F    spin-orbit coupling
   INIWAV =      1    electr: 0-lowe 1-rand  2-diag
   LASPH  =      F    aspherical Exc in radial PAW
 Electronic Relaxation 1
   ENCUT  =  250.0 eV  18.37 Ry    4.29 a.u.   8.48  8.48  8.48*2*pi/ulx,y,z
   ENINI  =  250.0     initial cutoff
   ENAUG  =  455.7 eV  augmentation charge cutoff
   NELM   =     80;   NELMIN=  2; NELMDL= -5     # of ELM steps 
   EDIFF  = 0.1E-07   stopping-criterion for ELM
   LREAL  =      F    real-space projection
   NLSPLINE    = F    spline interpolate recip. space projectors
   LCOMPAT=      F    compatible to vasp.4.4
   GGA_COMPAT  = T    GGA compatible to vasp.4.4-vasp.4.6
   LMAXPAW     = -100 max onsite density
   LMAXMIX     =    2 max onsite mixed and CHGCAR
   VOSKOWN=      0    Vosko Wilk Nusair interpolation
   ROPT   =    0.00000   0.00000   0.00000   0.00000
 Ionic relaxation
   EDIFFG = -.1E-01   stopping-criterion for IOM
   NSW    =      0    number of steps for IOM
   NBLOCK =      1;   KBLOCK =      1    inner block; outer block 
   IBRION =     -1    ionic relax: 0-MD 1-quasi-New 2-CG
   NFREE  =      0    steps in history (QN), initial steepest desc. (CG)
   ISIF   =      2    stress and relaxation
   IWAVPR =     10    prediction:  0-non 1-charg 2-wave 3-comb
   ISYM   =      2    0-nonsym 1-usesym 2-fastsym
   LCORR  =      T    Harris-Foulkes like correction to forces

   POTIM  = 0.5000    time-step for ionic-motion
   TEIN   =    0.0    initial temperature
   TEBEG  =    0.0;   TEEND  =   0.0 temperature during run
   SMASS  =  -3.00    Nose mass-parameter (am)
   estimated Nose-frequenzy (Omega)   =  0.10E-29 period in steps = 0.13E+47 mass=  -0.989E-27a.u.
   SCALEE = 1.0000    scale energy and forces
   NPACO  =    256;   APACO  = 10.0  distance and # of slots for P.C.
   PSTRESS=    0.0 pullay stress

  Mass of Ions in am
   POMASS =  92.91 95.94180.95183.85
  Ionic Valenz
   ZVAL   =  13.00 14.00 11.00 14.00
  Atomic Wigner-Seitz radii
   RWIGS  =  -1.00 -1.00 -1.00 -1.00
  virtual crystal weights 
   VCA    =   1.00  1.00  1.00  1.00
   NELECT =     206.0000    total number of electrons
   NUPDOWN=      -1.0000    fix difference up-down

 DOS related values:
   EMIN   =  10.00;   EMAX   =-10.00  energy-range for DOS
   EFERMI =   0.00
   ISMEAR =     0;   SIGMA  =   0.02  broadening in eV -4-tet -1-fermi 0-gaus

 Electronic relaxation 2 (details)
   IALGO  =     38    algorithm
   LDIAG  =      T    sub-space diagonalisation (order eigenvalues)
   LSUBROT=      F    optimize rotation matrix (better conditioning)
   TURBO    =      0    0=normal 1=particle mesh
   IRESTART =      0    0=no restart 2=restart with 2 vectors
   NREBOOT  =      0    no. of reboots
   NMIN     =      0    reboot dimension
   EREF     =   0.00    reference energy to select bands
   IMIX   =      4    mixing-type and parameters
     AMIX     =   0.40;   BMIX     =  1.00
     AMIX_MAG =   1.60;   BMIX_MAG =  1.00
     AMIN     =   0.10
     WC   =   100.;   INIMIX=   1;  MIXPRE=   1;  MAXMIX= -45

 Intra band minimization:
   WEIMIN = 0.0000     energy-eigenvalue tresh-hold
   EBREAK =  0.20E-10  absolut break condition
   DEPER  =   0.30     relativ break condition  

   TIME   =   0.40     timestep for ELM

  volume/ion in A,a.u.               =      17.81       120.16
  Fermi-wavevector in a.u.,A,eV,Ry     =   1.469393  2.776750 29.376560  2.159116
  Thomas-Fermi vector in A             =   2.584776
 
 Write flags
   LWAVE        =      F    write WAVECAR
   LDOWNSAMPLE  =      F    k-point downsampling of WAVECAR
   LCHARG       =      F    write CHGCAR
   LVTOT        =      F    write LOCPOT, total local potential
   LVHAR        =      F    write LOCPOT, Hartree potential only
   LELF         =      F    write electronic localiz. function (ELF)
   LORBIT       =      0    0 simple, 1 ext, 2 COOP (PROOUT), +10 PAW based schemes


 Dipole corrections
   LMONO  =      F    monopole corrections only (constant potential shift)
   LDIPOL =      F    correct potential (dipole corrections)
   IDIPOL =      0    1-x, 2-y, 3-z, 4-all directions 
   EPSILON=  1.0000000 bulk dielectric constant

 Core level calculations are selected ICORELEVEL =  1
 Exchange correlation treatment:
   GGA     =    PE    GGA type
   LEXCH   =     8    internal setting for exchange type
   LIBXC   =     F    Libxc                    
   VOSKOWN =     0    Vosko Wilk Nusair interpolation
   LHFCALC =     F    Hartree Fock is set to
   LHFONE  =     F    Hartree Fock one center treatment
   AEXX    =    0.0000 exact exchange contribution

 Linear response parameters
   LEPSILON=     F    determine dielectric tensor
   LRPA    =     F    only Hartree local field effects (RPA)
   LNABLA  =     F    use nabla operator in PAW spheres
   LVEL    =     F    velocity operator in full k-point grid
   CSHIFT  =0.1000    complex shift for real part using Kramers Kronig
   OMEGAMAX=  -1.0    maximum frequency
   DEG_THRESHOLD= 0.2000000E-02 threshold for treating states as degnerate
   RTIME   =   -0.100 relaxation time in fs
  (WPLASMAI=    0.000 imaginary part of plasma frequency in eV, 0.658/RTIME)
   DFIELD  = 0.0000000 0.0000000 0.0000000 field for delta impulse in time
 
  Optional k-point grid parameters
   LKPOINTS_OPT  =     F    use optional k-point grid
   KPOINTS_OPT_MODE=     1    mode for optional k-point grid
 
 Orbital magnetization related:
   ORBITALMAG=     F  switch on orbital magnetization
   LCHIMAG   =     F  perturbation theory with respect to B field
   DQ        =  0.001000  dq finite difference perturbation B field
   LLRAUG    =     F  two centre corrections for induced B field



--------------------------------------------------------------------------------------------------------


 Static calculation
 charge density and potential will be updated during run
 non-spin polarized calculation
 Variant of blocked Davidson
 Davidson routine will perform the subspace rotation
 perform sub-space diagonalisation
    after iterative eigenvector-optimisation
 modified Broyden-mixing scheme, WC =      100.0
 initial mixing is a Kerker type mixing with AMIX =  0.4000 and BMIX =      1.0000
 Hartree-type preconditioning will be used
 using additional bands           21
 reciprocal scheme for non local part
 use partial core corrections
 calculate Harris-corrections to forces 
   (improved forces if not selfconsistent)
 use gradient corrections 
 use of overlap-Matrix (Vanderbilt PP)
 Gauss-broadening in eV      SIGMA  =   0.02


--------------------------------------------------------------------------------------------------------


  energy-cutoff  :      250.00
  volume of cell :      284.89
      direct lattice vectors                 reciprocal lattice vectors
     6.580000000  0.000000000  0.000000000     0.151975684  0.000000000  0.000000000
     0.000000000  6.580000000  0.000000000     0.000000000  0.151975684  0.000000000
     0.000000000  0.000000000  6.580000000     0.000000000  0.000000000  0.151975684

  length of vectors
     6.580000000  6.580000000  6.580000000     0.151975684  0.151975684  0.151975684


 
 k-points in units of 2pi/SCALE and weight: K-Spacing Value to Generate K-Mesh: 0.03
   0.00000000  0.00000000  0.00000000       0.008
   0.03039514  0.00000000  0.00000000       0.016
   0.00000000  0.03039514  0.00000000       0.016
   0.00000000  0.00000000  0.03039514       0.016
   0.06079027  0.00000000  0.00000000       0.016
   0.00000000  0.06079027  0.00000000       0.016
   0.00000000  0.00000000  0.06079027       0.016
   0.03039514  0.03039514  0.00000000       0.016
   0.00000000  0.03039514  0.03039514       0.016
   0.03039514  0.00000000  0.03039514       0.016
  -0.03039514  0.03039514  0.00000000       0.016
  -0.03039514  0.00000000  0.03039514       0.016
   0.00000000 -0.03039514  0.03039514       0.016
   0.06079027  0.03039514  0.00000000       0.016
   0.00000000  0.06079027  0.03039514       0.016
   0.03039514  0.00000000  0.06079027       0.016
  -0.03039514  0.06079027  0.00000000       0.016
  -0.06079027  0.00000000  0.03039514       0.016
   0.00000000  0.03039514  0.06079027       0.016
   0.00000000 -0.06079027  0.03039514       0.016
  -0.03039514  0.00000000  0.06079027       0.016
   0.06079027  0.00000000  0.03039514       0.016
   0.00000000 -0.03039514  0.06079027       0.016
   0.06079027 -0.03039514  0.00000000       0.016
   0.03039514  0.06079027  0.00000000       0.016
   0.06079027  0.06079027  0.00000000       0.016
   0.00000000  0.06079027  0.06079027       0.016
   0.06079027  0.00000000  0.06079027       0.016
  -0.06079027  0.06079027  0.00000000       0.016
  -0.06079027  0.00000000  0.06079027       0.016
   0.00000000 -0.06079027  0.06079027       0.016
   0.03039514  0.03039514  0.03039514       0.016
  -0.03039514  0.03039514  0.03039514       0.016
  -0.03039514 -0.03039514  0.03039514       0.016
   0.03039514 -0.03039514  0.03039514       0.016
   0.06079027  0.03039514  0.03039514       0.016
   0.03039514  0.06079027  0.03039514       0.016
   0.03039514  0.03039514  0.06079027       0.016
  -0.03039514  0.06079027  0.03039514       0.016
  -0.06079027  0.03039514  0.03039514       0.016
  -0.03039514  0.03039514  0.06079027       0.016
  -0.06079027 -0.03039514  0.03039514       0.016
  -0.03039514 -0.06079027  0.03039514       0.016
  -0.03039514 -0.03039514  0.06079027       0.016
   0.03039514 -0.06079027  0.03039514       0.016
   0.06079027 -0.03039514  0.03039514       0.016
   0.03039514 -0.03039514  0.06079027       0.016
   0.06079027  0.06079027  0.03039514       0.016
   0.03039514  0.06079027  0.06079027       0.016
   0.06079027  0.03039514  0.06079027       0.016
  -0.06079027  0.06079027  0.03039514       0.016
  -0.06079027  0.03039514  0.06079027       0.016
  -0.03039514  0.06079027  0.06079027       0.016
  -0.06079027 -0.06079027  0.03039514       0.016
  -0.03039514 -0.06079027  0.06079027       0.016
  -0.06079027 -0.03039514  0.06079027       0.016
   0.06079027 -0.06079027  0.03039514       0.016
   0.06079027 -0.03039514  0.06079027       0.016
   0.03039514 -0.06079027  0.06079027       0.016
   0.06079027  0.06079027  0.06079027       0.016
  -0.06079027  0.06079027  0.06079027       0.016
  -0.06079027 -0.06079027  0.06079027       0.016
   0.06079027 -0.06079027  0.06079027       0.016
 
 k-points in reciprocal lattice and weights: K-Spacing Value to Generate K-Mesh: 0.03
   0.00000000  0.00000000  0.00000000       0.008
   0.20000000  0.00000000  0.00000000       0.016
   0.00000000  0.20000000  0.00000000       0.016
   0.00000000  0.00000000  0.20000000       0.016
   0.40000000  0.00000000  0.00000000       0.016
   0.00000000  0.40000000  0.00000000       0.016
   0.00000000  0.00000000  0.40000000       0.016
   0.20000000  0.20000000  0.00000000       0.016
   0.00000000  0.20000000  0.20000000       0.016
   0.20000000  0.00000000  0.20000000       0.016
  -0.20000000  0.20000000  0.00000000       0.016
  -0.20000000  0.00000000  0.20000000       0.016
   0.00000000 -0.20000000  0.20000000       0.016
   0.40000000  0.20000000  0.00000000       0.016
   0.00000000  0.40000000  0.20000000       0.016
   0.20000000  0.00000000  0.40000000       0.016
  -0.20000000  0.40000000  0.00000000       0.016
  -0.40000000  0.00000000  0.20000000       0.016
   0.00000000  0.20000000  0.40000000       0.016
   0.00000000 -0.40000000  0.20000000       0.016
  -0.20000000  0.00000000  0.40000000       0.016
   0.40000000  0.00000000  0.20000000       0.016
   0.00000000 -0.20000000  0.40000000       0.016
   0.40000000 -0.20000000  0.00000000       0.016
   0.20000000  0.40000000  0.00000000       0.016
   0.40000000  0.40000000  0.00000000       0.016
   0.00000000  0.40000000  0.40000000       0.016
   0.40000000  0.00000000  0.40000000       0.016
  -0.40000000  0.40000000  0.00000000       0.016
  -0.40000000  0.00000000  0.40000000       0.016
   0.00000000 -0.40000000  0.40000000       0.016
   0.20000000  0.20000000  0.20000000       0.016
  -0.20000000  0.20000000  0.20000000       0.016
  -0.20000000 -0.20000000  0.20000000       0.016
   0.20000000 -0.20000000  0.20000000       0.016
   0.40000000  0.20000000  0.20000000       0.016
   0.20000000  0.40000000  0.20000000       0.016
   0.20000000  0.20000000  0.40000000       0.016
  -0.20000000  0.40000000  0.20000000       0.016
  -0.40000000  0.20000000  0.20000000       0.016
  -0.20000000  0.20000000  0.40000000       0.016
  -0.40000000 -0.20000000  0.20000000       0.016
  -0.20000000 -0.40000000  0.20000000       0.016
  -0.20000000 -0.20000000  0.40000000       0.016
   0.20000000 -0.40000000  0.20000000       0.016
   0.40000000 -0.20000000  0.20000000       0.016
   0.20000000 -0.20000000  0.40000000       0.016
   0.40000000  0.40000000  0.20000000       0.016
   0.20000000  0.40000000  0.40000000       0.016
   0.40000000  0.20000000  0.40000000       0.016
  -0.40000000  0.40000000  0.20000000       0.016
  -0.40000000  0.20000000  0.40000000       0.016
  -0.20000000  0.40000000  0.40000000       0.016
  -0.40000000 -0.40000000  0.20000000       0.016
  -0.20000000 -0.40000000  0.40000000       0.016
  -0.40000000 -0.20000000  0.40000000       0.016
   0.40000000 -0.40000000  0.20000000       0.016
   0.40000000 -0.20000000  0.40000000       0.016
   0.20000000 -0.40000000  0.40000000       0.016
   0.40000000  0.40000000  0.40000000       0.016
  -0.40000000  0.40000000  0.40000000       0.016
  -0.40000000 -0.40000000  0.40000000       0.016
   0.40000000 -0.40000000  0.40000000       0.016
 
 position of ions in fractional coordinates (direct lattice) 
   0.75000000  0.25000000  0.75000000
   0.50000000  0.00000000  0.00000000
   0.00000000  0.00000000  0.50000000
   0.00000000  0.50000000  0.00000000
   0.75000000  0.25000000  0.25000000
   0.75000000  0.75000000  0.75000000
   0.25000000  0.25000000  0.25000000
   0.25000000  0.75000000  0.75000000
   0.50000000  0.50000000  0.50000000
   0.75000000  0.75000000  0.25000000
   0.50000000  0.00000000  0.50000000
   0.00000000  0.00000000  0.00000000
   0.50000000  0.50000000  0.00000000
   0.25000000  0.25000000  0.75000000
   0.00000000  0.50000000  0.50000000
   0.25000000  0.75000000  0.25000000
 
 position of ions in cartesian coordinates  (Angst):
   4.93500000  1.64500000  4.93500000
   3.29000000  0.00000000  0.00000000
   0.00000000  0.00000000  3.29000000
   0.00000000  3.29000000  0.00000000
   4.93500000  1.64500000  1.64500000
   4.93500000  4.93500000  4.93500000
   1.64500000  1.64500000  1.64500000
   1.64500000  4.93500000  4.93500000
   3.29000000  3.29000000  3.29000000
   4.93500000  4.93500000  1.64500000
   3.29000000  0.00000000  3.29000000
   0.00000000  0.00000000  0.00000000
   3.29000000  3.29000000  0.00000000
   1.64500000  1.64500000  4.93500000
   0.00000000  3.29000000  3.29000000
   1.64500000  4.93500000  1.64500000
 


--------------------------------------------------------------------------------------------------------


 k-point   1 :   0.0000 0.0000 0.0000  plane waves:    2517
 k-point   2 :   0.2000 0.0000 0.0000  plane waves:    2545
 k-point   3 :   0.0000 0.2000 0.0000  plane waves:    2545
 k-point   4 :   0.0000 0.0000 0.2000  plane waves:    2545
 k-point   5 :   0.4000 0.0000 0.0000  plane waves:    2569
 k-point   6 :   0.0000 0.4000 0.0000  plane waves:    2569
 k-point   7 :   0.0000 0.0000 0.4000  plane waves:    2569
 k-point   8 :   0.2000 0.2000 0.0000  plane waves:    2562
 k-point   9 :   0.0000 0.2000 0.2000  plane waves:    2562
 k-point  10 :   0.2000 0.0000 0.2000  plane waves:    2562
 k-point  11 :  -0.2000 0.2000 0.0000  plane waves:    2562
 k-point  12 :  -0.2000 0.0000 0.2000  plane waves:    2562
 k-point  13 :   0.0000-0.2000 0.2000  plane waves:    2562
 k-point  14 :   0.4000 0.2000 0.0000  plane waves:    2566
 k-point  15 :   0.0000 0.4000 0.2000  plane waves:    2566
 k-point  16 :   0.2000 0.0000 0.4000  plane waves:    2566
 k-point  17 :  -0.2000 0.4000 0.0000  plane waves:    2566
 k-point  18 :  -0.4000 0.0000 0.2000  plane waves:    2566
 k-point  19 :   0.0000 0.2000 0.4000  plane waves:    2566
 k-point  20 :   0.0000-0.4000 0.2000  plane waves:    2566
 k-point  21 :  -0.2000 0.0000 0.4000  plane waves:    2566
 k-point  22 :   0.4000 0.0000 0.2000  plane waves:    2566
 k-point  23 :   0.0000-0.2000 0.4000  plane waves:    2566
 k-point  24 :   0.4000-0.2000 0.0000  plane waves:    2566
 k-point  25 :   0.2000 0.4000 0.0000  plane waves:    2566
 k-point  26 :   0.4000 0.4000 0.0000  plane waves:    2570
 k-point  27 :   0.0000 0.4000 0.4000  plane waves:    2570
 k-point  28 :   0.4000 0.0000 0.4000  plane waves:    2570
 k-point  29 :  -0.4000 0.4000 0.0000  plane waves:    2570
 k-point  30 :  -0.4000 0.0000 0.4000  plane waves:    2570
 k-point  31 :   0.0000-0.4000 0.4000  plane waves:    2570
 k-point  32 :   0.2000 0.2000 0.2000  plane waves:    2572
 k-point  33 :  -0.2000 0.2000 0.2000  plane waves:    2572
 k-point  34 :  -0.2000-0.2000 0.2000  plane waves:    2572
 k-point  35 :   0.2000-0.2000 0.2000  plane waves:    2572
 k-point  36 :   0.4000 0.2000 0.2000  plane waves:    2546
 k-point  37 :   0.2000 0.4000 0.2000  plane waves:    2546
 k-point  38 :   0.2000 0.2000 0.4000  plane waves:    2546
 k-point  39 :  -0.2000 0.4000 0.2000  plane waves:    2546
 k-point  40 :  -0.4000 0.2000 0.2000  plane waves:    2546
 k-point  41 :  -0.2000 0.2000 0.4000  plane waves:    2546
 k-point  42 :  -0.4000-0.2000 0.2000  plane waves:    2546
 k-point  43 :  -0.2000-0.4000 0.2000  plane waves:    2546
 k-point  44 :  -0.2000-0.2000 0.4000  plane waves:    2546
 k-point  45 :   0.2000-0.4000 0.2000  plane waves:    2546
 k-point  46 :   0.4000-0.2000 0.2000  plane waves:    2546
 k-point  47 :   0.2000-0.2000 0.4000  plane waves:    2546
 k-point  48 :   0.4000 0.4000 0.2000  plane waves:    2549
 k-point  49 :   0.2000 0.4000 0.4000  plane waves:    2549
 k-point  50 :   0.4000 0.2000 0.4000  plane waves:    2549
 k-point  51 :  -0.4000 0.4000 0.2000  plane waves:    2549
 k-point  52 :  -0.4000 0.2000 0.4000  plane waves:    2549
 k-point  53 :  -0.2000 0.4000 0.4000  plane waves:    2549
 k-point  54 :  -0.4000-0.4000 0.2000  plane waves:    2549
 k-point  55 :  -0.2000-0.4000 0.4000  plane waves:    2549
 k-point  56 :  -0.4000-0.2000 0.4000  plane waves:    2549
 k-point  57 :   0.4000-0.4000 0.2000  plane waves:    2549
 k-point  58 :   0.4000-0.2000 0.4000  plane waves:    2549
 k-point  59 :   0.2000-0.4000 0.4000  plane waves:    2549
 k-point  60 :   0.4000 0.4000 0.4000  plane waves:    2533
 k-point  61 :  -0.4000 0.4000 0.4000  plane waves:    2533
 k-point  62 :  -0.4000-0.4000 0.4000  plane waves:    2533
 k-point  63 :   0.4000-0.4000 0.4000  plane waves:    2533

 maximum and minimum number of plane-waves per node :       235      194

 maximum number of plane-waves:      2572
 maximum index in each direction: 
   IXMAX=    8   IYMAX=    8   IZMAX=    8
   IXMIN=   -8   IYMIN=   -8   IZMIN=   -8


 parallel 3D FFT for wavefunctions:
    minimum data exchange during FFTs selected (reduces bandwidth)
 parallel 3D FFT for charge:
    minimum data exchange during FFTs selected (reduces bandwidth)


 total amount of memory used by VASP MPI-rank0    47987. kBytes
=======================================================================

   base      :      30000. kBytes
   nonl-proj :       8332. kBytes
   fftplans  :        456. kBytes
   grid      :        919. kBytes
   one-center:         31. kBytes
   wavefun   :       8249. kBytes
 
     INWAV:  cpu time      0.0000: real time      0.0000
 Broyden mixing: mesh for mixing (old mesh)
   NGX = 17   NGY = 17   NGZ = 17
  (NGX  = 72   NGY  = 72   NGZ  = 72)
  gives a total of   4913 points

 initial charge density was supplied:
 charge density of overlapping atoms calculated
 number of electron     206.0000000 magnetization 
 keeping initial charge density in first step


--------------------------------------------------------------------------------------------------------


 Maximum index for augmentation-charges          517 (set IRDMAX)


--------------------------------------------------------------------------------------------------------


 First call to EWALD:  gamma=   0.269
 Maximum number of real-space cells 3x 3x 3
 Maximum number of reciprocal cells 3x 3x 3

    FEWALD:  cpu time      0.0013: real time      0.0013


--------------------------------------- Iteration      1(   1)  ---------------------------------------


    POTLOK:  cpu time      0.2351: real time      0.3691
    SETDIJ:  cpu time      0.0030: real time      0.0031
     EDDAV:  cpu time      3.0883: real time      3.1021
       DOS:  cpu time      0.0045: real time      0.0045
    --------------------------------------------
      LOOP:  cpu time      3.3310: real time      3.4788

 eigenvalue-minimisations  : 16192
 total energy-change (2. order) : 0.1913022E+04  (-0.8088933E+04)
 number of electron     206.0000000 magnetization 
 augmentation part      206.0000000 magnetization 

 Free energy of the ion-electron system (eV)
  ---------------------------------------------------
  alpha Z        PSCENC =      1877.79436010
  Ewald energy   TEWEN  =    -21204.20284542
  -Hartree energ DENC   =     -3951.14313970
  -exchange      EXHF   =         0.00000000
  -V(xc)+E(xc)   XCENC  =       782.80687351
  PAW double counting   =     19651.26679952   -19347.55439239
  entropy T*S    EENTRO =        -0.00087419
  eigenvalues    EBANDS =      -707.45299620
  atomic energy  EATOM  =     24811.50853993
  Solvation  Ediel_sol  =         0.00000000
  ---------------------------------------------------
  free energy    TOTEN  =      1913.02232517 eV

  energy without entropy =     1913.02319936  energy(sigma->0) =     1913.02276226


--------------------------------------------------------------------------------------------------------




--------------------------------------- Iteration      1(   2)  ---------------------------------------


     EDDAV:  cpu time      3.0661: real time      3.0800
       DOS:  cpu time      0.0046: real time      0.0046
    --------------------------------------------
      LOOP:  cpu time      3.0707: real time      3.0845

 eigenvalue-minimisations  : 16152
 total energy-change (2. order) :-0.1942910E+04  (-0.1880457E+04)
 number of electron     206.0000000 magnetization 
 augmentation part      206.0000000 magnetization 

 Free energy of the ion-electron system (eV)
  ---------------------------------------------------
  alpha Z        PSCENC =      1877.79436010
  Ewald energy   TEWEN  =    -21204.20284542
  -Hartree energ DENC   =     -3951.14313970
  -exchange      EXHF   =         0.00000000
  -V(xc)+E(xc)   XCENC  =       782.80687351
  PAW double counting   =     19651.26679952   -19347.55439239
  entropy T*S    EENTRO =        -0.00124489
  eigenvalues    EBANDS =     -2650.36226513
  atomic energy  EATOM  =     24811.50853993
  Solvation  Ediel_sol  =         0.00000000
  ---------------------------------------------------
  free energy    TOTEN  =       -29.88731447 eV

  energy without entropy =      -29.88606957  energy(sigma->0) =      -29.88669202


--------------------------------------------------------------------------------------------------------




--------------------------------------- Iteration      1(   3)  ---------------------------------------


     EDDAV:  cpu time      4.0093: real time      4.0271
       DOS:  cpu time      0.0043: real time      0.0044
    --------------------------------------------
      LOOP:  cpu time      4.0137: real time      4.0315

 eigenvalue-minimisations  : 23104
 total energy-change (2. order) :-0.1560099E+03  (-0.1470845E+03)
 number of electron     206.0000000 magnetization 
 augmentation part      206.0000000 magnetization 

 Free energy of the ion-electron system (eV)
  ---------------------------------------------------
  alpha Z        PSCENC =      1877.79436010
  Ewald energy   TEWEN  =    -21204.20284542
  -Hartree energ DENC   =     -3951.14313970
  -exchange      EXHF   =         0.00000000
  -V(xc)+E(xc)   XCENC  =       782.80687351
  PAW double counting   =     19651.26679952   -19347.55439239
  entropy T*S    EENTRO =        -0.00286238
  eigenvalues    EBANDS =     -2806.37058024
  atomic energy  EATOM  =     24811.50853993
  Solvation  Ediel_sol  =         0.00000000
  ---------------------------------------------------
  free energy    TOTEN  =      -185.89724706 eV

  energy without entropy =     -185.89438469  energy(sigma->0) =     -185.89581587


--------------------------------------------------------------------------------------------------------




--------------------------------------- Iteration      1(   4)  ---------------------------------------


     EDDAV:  cpu time      3.8966: real time      3.9134
       DOS:  cpu time      0.0044: real time      0.0045
    --------------------------------------------
      LOOP:  cpu time      3.9011: real time      3.9178

 eigenvalue-minimisations  : 22424
 total energy-change (2. order) :-0.9189984E+01  (-0.8929693E+01)
 number of electron     206.0000000 magnetization 
 augmentation part      206.0000000 magnetization 

 Free energy of the ion-electron system (eV)
  ---------------------------------------------------
  alpha Z        PSCENC =      1877.79436010
  Ewald energy   TEWEN  =    -21204.20284542
  -Hartree energ DENC   =     -3951.14313970
  -exchange      EXHF   =         0.00000000
  -V(xc)+E(xc)   XCENC  =       782.80687351
  PAW double counting   =     19651.26679952   -19347.55439239
  entropy T*S    EENTRO =        -0.00307766
  eigenvalues    EBANDS =     -2815.56034858
  atomic energy  EATOM  =     24811.50853993
  Solvation  Ediel_sol  =         0.00000000
  ---------------------------------------------------
  free energy    TOTEN  =      -195.08723069 eV

  energy without entropy =     -195.08415303  energy(sigma->0) =     -195.08569186


--------------------------------------------------------------------------------------------------------




--------------------------------------- Iteration      1(   5)  ---------------------------------------


     EDDAV:  cpu time      4.1918: real time      4.2159
       DOS:  cpu time      0.0042: real time      0.0043
    CHARGE:  cpu time      0.0813: real time      0.0816
    MIXING:  cpu time      0.0002: real time      0.0002
    --------------------------------------------
      LOOP:  cpu time      4.2775: real time      4.3019

 eigenvalue-minimisations  : 24688
 total energy-change (2. order) :-0.5533766E+00  (-0.5485854E+00)
 number of electron     205.9999822 magnetization 
 augmentation part       45.2480467 magnetization 

 Broyden mixing:
  rms(total) = 0.54629E+01    rms(broyden)= 0.54619E+01
  rms(prec ) = 0.59937E+01
  weight for this iteration     100.00

 Free energy of the ion-electron system (eV)
  ---------------------------------------------------
  alpha Z        PSCENC =      1877.79436010
  Ewald energy   TEWEN  =    -21204.20284542
  -Hartree energ DENC   =     -3951.14313970
  -exchange      EXHF   =         0.00000000
  -V(xc)+E(xc)   XCENC  =       782.80687351
  PAW double counting   =     19651.26679952   -19347.55439239
  entropy T*S    EENTRO =        -0.00316852
  eigenvalues    EBANDS =     -2816.11363428
  atomic energy  EATOM  =     24811.50853993
  Solvation  Ediel_sol  =         0.00000000
  ---------------------------------------------------
  free energy    TOTEN  =      -195.64060725 eV

  energy without entropy =     -195.63743873  energy(sigma->0) =     -195.63902299


--------------------------------------------------------------------------------------------------------




--------------------------------------- Iteration      1(   6)  ---------------------------------------


    POTLOK:  cpu time      0.0046: real time      0.0047
    SETDIJ:  cpu time      0.0018: real time      0.0018
     EDDAV:  cpu time      3.3486: real time      3.3632
       DOS:  cpu time      0.0044: real time      0.0045
    CHARGE:  cpu time      0.0814: real time      0.0817
    MIXING:  cpu time      0.0003: real time      0.0003
    --------------------------------------------
      LOOP:  cpu time      3.4411: real time      3.4561

 eigenvalue-minimisations  : 18456
 total energy-change (2. order) : 0.7275849E+01  (-0.2190204E+01)
 number of electron     205.9999810 magnetization 
 augmentation part       46.9845829 magnetization 

 Broyden mixing:
  rms(total) = 0.20801E+01    rms(broyden)= 0.20799E+01
  rms(prec ) = 0.26232E+01
  weight for this iteration     100.00

 eigenvalues of (default mixing * dielectric matrix)
  average eigenvalue GAMMA=   1.4450
  1.4450

 Free energy of the ion-electron system (eV)
  ---------------------------------------------------
  alpha Z        PSCENC =      1877.79436010
  Ewald energy   TEWEN  =    -21204.20284542
  -Hartree energ DENC   =     -3727.65128424
  -exchange      EXHF   =         0.00000000
  -V(xc)+E(xc)   XCENC  =       771.92618773
  PAW double counting   =     23469.38641960   -23195.03322036
  entropy T*S    EENTRO =        -0.00188137
  eigenvalues    EBANDS =     -2992.09103449
  atomic energy  EATOM  =     24811.50853993
  Solvation  Ediel_sol  =         0.00000000
  ---------------------------------------------------
  free energy    TOTEN  =      -188.36475852 eV

  energy without entropy =     -188.36287715  energy(sigma->0) =     -188.36381784


--------------------------------------------------------------------------------------------------------




--------------------------------------- Iteration      1(   7)  ---------------------------------------


    POTLOK:  cpu time      0.0040: real time      0.0042
    SETDIJ:  cpu time      0.0017: real time      0.0017
     EDDAV:  cpu time      3.7929: real time      3.8090
       DOS:  cpu time      0.0046: real time      0.0047
    CHARGE:  cpu time      0.0822: real time      0.0825
    MIXING:  cpu time      0.0003: real time      0.0003
    --------------------------------------------
      LOOP:  cpu time      3.8858: real time      3.9024

 eigenvalue-minimisations  : 21656
 total energy-change (2. order) :-0.4680236E+00  (-0.1962990E+01)
 number of electron     205.9999819 magnetization 
 augmentation part       46.7967762 magnetization 

 Broyden mixing:
  rms(total) = 0.12448E+01    rms(broyden)= 0.12444E+01
  rms(prec ) = 0.27850E+01
  weight for this iteration     100.00

 eigenvalues of (default mixing * dielectric matrix)
  average eigenvalue GAMMA=   1.0943
  1.6466  0.5420

 Free energy of the ion-electron system (eV)
  ---------------------------------------------------
  alpha Z        PSCENC =      1877.79436010
  Ewald energy   TEWEN  =    -21204.20284542
  -Hartree energ DENC   =     -3670.33683913
  -exchange      EXHF   =         0.00000000
  -V(xc)+E(xc)   XCENC  =       768.49441312
  PAW double counting   =     25859.43725682   -25595.28561125
  entropy T*S    EENTRO =        -0.00350567
  eigenvalues    EBANDS =     -3036.23855067
  atomic energy  EATOM  =     24811.50853993
  Solvation  Ediel_sol  =         0.00000000
  ---------------------------------------------------
  free energy    TOTEN  =      -188.83278217 eV

  energy without entropy =     -188.82927650  energy(sigma->0) =     -188.83102933


--------------------------------------------------------------------------------------------------------




--------------------------------------- Iteration      1(   8)  ---------------------------------------


    POTLOK:  cpu time      0.0041: real time      0.0043
    SETDIJ:  cpu time      0.0017: real time      0.0017
     EDDAV:  cpu time      3.3966: real time      3.4112
       DOS:  cpu time      0.0035: real time      0.0035
    CHARGE:  cpu time      0.0848: real time      0.0851
    MIXING:  cpu time      0.0003: real time      0.0003
    --------------------------------------------
      LOOP:  cpu time      3.4910: real time      3.5060

 eigenvalue-minimisations  : 18916
 total energy-change (2. order) : 0.2736886E+01  (-0.9209795E+00)
 number of electron     205.9999815 magnetization 
 augmentation part       47.3067335 magnetization 

 Broyden mixing:
  rms(total) = 0.40744E+00    rms(broyden)= 0.40650E+00
  rms(prec ) = 0.61369E+00
  weight for this iteration     100.00

 eigenvalues of (default mixing * dielectric matrix)
  average eigenvalue GAMMA=   1.0649
  1.7717  1.0068  0.4163

 Free energy of the ion-electron system (eV)
  ---------------------------------------------------
  alpha Z        PSCENC =      1877.79436010
  Ewald energy   TEWEN  =    -21204.20284542
  -Hartree energ DENC   =     -3622.35747006
  -exchange      EXHF   =         0.00000000
  -V(xc)+E(xc)   XCENC  =       766.41878658
  PAW double counting   =     26922.06356766   -26664.35782848
  entropy T*S    EENTRO =        -0.00188237
  eigenvalues    EBANDS =     -3072.96112403
  atomic energy  EATOM  =     24811.50853993
  Solvation  Ediel_sol  =         0.00000000
  ---------------------------------------------------
  free energy    TOTEN  =      -186.09589610 eV

  energy without entropy =     -186.09401372  energy(sigma->0) =     -186.09495491


--------------------------------------------------------------------------------------------------------




--------------------------------------- Iteration      1(   9)  ---------------------------------------


    POTLOK:  cpu time      0.0045: real time      0.0047
    SETDIJ:  cpu time      0.0017: real time      0.0017
     EDDAV:  cpu time      3.6134: real time      3.6285
       DOS:  cpu time      0.0046: real time      0.0047
    CHARGE:  cpu time      0.0783: real time      0.0786
    MIXING:  cpu time      0.0005: real time      0.0005
    --------------------------------------------
      LOOP:  cpu time      3.7029: real time      3.7186

 eigenvalue-minimisations  : 20752
 total energy-change (2. order) :-0.2868344E-01  (-0.1639812E+00)
 number of electron     205.9999814 magnetization 
 augmentation part       47.4191270 magnetization 

 Broyden mixing:
  rms(total) = 0.33441E+00    rms(broyden)= 0.33435E+00
  rms(prec ) = 0.48407E+00
  weight for this iteration     100.00

 eigenvalues of (default mixing * dielectric matrix)
  average eigenvalue GAMMA=   1.1171
  1.9582  1.6065  0.5262  0.3777

 Free energy of the ion-electron system (eV)
  ---------------------------------------------------
  alpha Z        PSCENC =      1877.79436010
  Ewald energy   TEWEN  =    -21204.20284542
  -Hartree energ DENC   =     -3614.66353914
  -exchange      EXHF   =         0.00000000
  -V(xc)+E(xc)   XCENC  =       766.07951450
  PAW double counting   =     27279.00129127   -27022.05669721
  entropy T*S    EENTRO =        -0.00230701
  eigenvalues    EBANDS =     -3079.58289657
  atomic energy  EATOM  =     24811.50853993
  Solvation  Ediel_sol  =         0.00000000
  ---------------------------------------------------
  free energy    TOTEN  =      -186.12457954 eV

  energy without entropy =     -186.12227253  energy(sigma->0) =     -186.12342603


--------------------------------------------------------------------------------------------------------




--------------------------------------- Iteration      1(  10)  ---------------------------------------


    POTLOK:  cpu time      0.0048: real time      0.0050
    SETDIJ:  cpu time      0.0017: real time      0.0017
     EDDAV:  cpu time      3.5489: real time      3.5642
       DOS:  cpu time      0.0042: real time      0.0042
    CHARGE:  cpu time      0.0839: real time      0.0841
    MIXING:  cpu time      0.0003: real time      0.0003
    --------------------------------------------
      LOOP:  cpu time      3.6437: real time      3.6595

 eigenvalue-minimisations  : 20144
 total energy-change (2. order) : 0.4476169E-01  (-0.3480175E-01)
 number of electron     205.9999815 magnetization 
 augmentation part       47.3495114 magnetization 

 Broyden mixing:
  rms(total) = 0.15750E+00    rms(broyden)= 0.15747E+00
  rms(prec ) = 0.22493E+00
  weight for this iteration     100.00

 eigenvalues of (default mixing * dielectric matrix)
  average eigenvalue GAMMA=   1.1833
  2.5460  1.7473  0.8289  0.3971  0.3971

 Free energy of the ion-electron system (eV)
  ---------------------------------------------------
  alpha Z        PSCENC =      1877.79436010
  Ewald energy   TEWEN  =    -21204.20284542
  -Hartree energ DENC   =     -3616.34393122
  -exchange      EXHF   =         0.00000000
  -V(xc)+E(xc)   XCENC  =       766.14158103
  PAW double counting   =     27514.84652775   -27257.26736593
  entropy T*S    EENTRO =        -0.00214516
  eigenvalues    EBANDS =     -3078.55453894
  atomic energy  EATOM  =     24811.50853993
  Solvation  Ediel_sol  =         0.00000000
  ---------------------------------------------------
  free energy    TOTEN  =      -186.07981785 eV

  energy without entropy =     -186.07767269  energy(sigma->0) =     -186.07874527


--------------------------------------------------------------------------------------------------------




--------------------------------------- Iteration      1(  11)  ---------------------------------------


    POTLOK:  cpu time      0.0040: real time      0.0042
    SETDIJ:  cpu time      0.0017: real time      0.0017
     EDDAV:  cpu time      3.6238: real time      3.6393
       DOS:  cpu time      0.0045: real time      0.0045
    CHARGE:  cpu time      0.0817: real time      0.0819
    MIXING:  cpu time      0.0003: real time      0.0003
    --------------------------------------------
      LOOP:  cpu time      3.7159: real time      3.7319

 eigenvalue-minimisations  : 20584
 total energy-change (2. order) : 0.3442262E-03  (-0.1228823E-01)
 number of electron     205.9999816 magnetization 
 augmentation part       47.3112363 magnetization 

 Broyden mixing:
  rms(total) = 0.55176E-01    rms(broyden)= 0.55107E-01
  rms(prec ) = 0.14005E+00
  weight for this iteration     100.00

 eigenvalues of (default mixing * dielectric matrix)
  average eigenvalue GAMMA=   1.0683
  2.5334  1.7296  0.8664  0.4550  0.4550  0.3704

 Free energy of the ion-electron system (eV)
  ---------------------------------------------------
  alpha Z        PSCENC =      1877.79436010
  Ewald energy   TEWEN  =    -21204.20284542
  -Hartree energ DENC   =     -3618.91381658
  -exchange      EXHF   =         0.00000000
  -V(xc)+E(xc)   XCENC  =       766.25161011
  PAW double counting   =     27679.10630933   -27420.65059827
  entropy T*S    EENTRO =        -0.00185479
  eigenvalues    EBANDS =     -3076.97117804
  atomic energy  EATOM  =     24811.50853993
  Solvation  Ediel_sol  =         0.00000000
  ---------------------------------------------------
  free energy    TOTEN  =      -186.07947362 eV

  energy without entropy =     -186.07761884  energy(sigma->0) =     -186.07854623


--------------------------------------------------------------------------------------------------------




--------------------------------------- Iteration      1(  12)  ---------------------------------------


    POTLOK:  cpu time      0.0045: real time      0.0047
    SETDIJ:  cpu time      0.0017: real time      0.0017
     EDDAV:  cpu time      3.6912: real time      3.7069
       DOS:  cpu time      0.0046: real time      0.0046
    CHARGE:  cpu time      0.0853: real time      0.0856
[...]
     25     -25.9796      2.00000
     26     -25.8827      2.00000
     27     -25.8577      2.00000
     28     -25.8327      2.00000
     29     -25.8042      2.00000
     30     -25.7971      2.00000
     31     -25.7789      2.00000
     32     -25.7568      2.00000
     33     -25.7254      2.00000
     34     -25.6814      2.00000
     35     -25.5961      2.00000
     36     -25.2959      2.00000
     37     -25.2253      2.00000
     38     -25.1549      2.00000
     39     -25.0767      2.00000
     40     -25.0306      2.00000
     41     -24.9837      2.00000
     42     -24.9705      2.00000
     43     -24.9490      2.00000
     44     -24.9166      2.00000
     45     -24.9044      2.00000
     46     -24.8732      2.00000
     47     -24.8075      2.00000
     48     -24.7218      2.00000
     49     -24.6837      2.00000
     50     -24.6226      2.00000
     51     -21.8882      2.00000
     52     -21.7998      2.00000
     53     -21.6542      2.00000
     54     -21.6518      2.00000
     55     -21.6489      2.00000
     56     -21.6285      2.00000
     57     -21.5193      2.00000
     58     -21.3953      2.00000
     59     -21.3357      2.00000
     60       3.3644      2.00000
     61       3.9106      2.00000
     62       4.1356      2.00000
     63       4.2890      2.00000
     64       4.5766      2.00000
     65       4.9981      2.00000
     66       5.2301      2.00000
     67       5.6164      2.00000
     68       6.0072      2.00000
     69       6.0821      2.00000
     70       6.1071      2.00000
     71       6.1327      2.00000
     72       6.2064      2.00000
     73       6.2849      2.00000
     74       6.3419      2.00000
     75       6.3576      2.00000
     76       6.4231      2.00000
     77       6.4384      2.00000
     78       6.5138      2.00000
     79       6.5580      2.00000
     80       6.8426      2.00000
     81       6.8718      2.00000
     82       6.9485      2.00000
     83       7.0042      2.00000
     84       7.0399      2.00000
     85       7.0626      2.00000
     86       7.0748      2.00000
     87       7.1210      2.00000
     88       7.1520      2.00000
     89       7.2008      2.00000
     90       7.2241      2.00000
     91       7.2577      2.00000
     92       7.2849      2.00000
     93       7.3151      2.00000
     94       7.3359      2.00000
     95       7.3636      2.00000
     96       7.3778      2.00000
     97       7.4282      2.00000
     98       7.4638      2.00000
     99       7.5193      2.00000
    100       7.5763      2.00000
    101       7.5865      2.00000
    102       7.6491      2.00000
    103       7.6994      2.00000
    104       7.7252      2.00000
    105       7.7770      2.00000
    106       7.8038      2.00000
    107       8.1547      2.00000
    108      10.7516      0.00000
    109      10.9146      0.00000
    110      11.0160      0.00000
    111      11.1025      0.00000
    112      11.1380      0.00000
    113      11.1883      0.00000
    114      11.2356      0.00000
    115      11.2706      0.00000
    116      11.3284      0.00000
    117      11.4108      0.00000
    118      11.5037      0.00000
    119      11.5542      0.00000
    120      11.6363      0.00000
    121      11.6880      0.00000
    122      11.7277      0.00000
    123      11.8227      0.00000
    124      11.8641      0.00000

 k-point    63 :       0.4000   -0.4000    0.4000
  band No.  band energies     occupation 
      1     -64.7900      2.00000
      2     -64.7881      2.00000
      3     -64.7129      2.00000
      4     -64.6747      2.00000
      5     -51.7565      2.00000
      6     -51.6815      2.00000
      7     -51.6432      2.00000
      8     -51.6175      2.00000
      9     -45.5726      2.00000
     10     -45.5616      2.00000
     11     -45.4275      2.00000
     12     -29.1369      2.00000
     13     -29.1171      2.00000
     14     -29.0894      2.00000
     15     -29.0701      2.00000
     16     -29.0108      2.00000
     17     -29.0024      2.00000
     18     -28.9283      2.00000
     19     -28.8960      2.00000
     20     -28.8457      2.00000
     21     -28.8220      2.00000
     22     -28.7741      2.00000
     23     -28.7481      2.00000
     24     -26.0745      2.00000
     25     -25.9739      2.00000
     26     -25.8743      2.00000
     27     -25.8629      2.00000
     28     -25.8141      2.00000
     29     -25.8039      2.00000
     30     -25.7883      2.00000
     31     -25.7794      2.00000
     32     -25.7526      2.00000
     33     -25.7288      2.00000
     34     -25.6958      2.00000
     35     -25.6184      2.00000
     36     -25.3021      2.00000
     37     -25.2164      2.00000
     38     -25.1423      2.00000
     39     -25.0764      2.00000
     40     -25.0258      2.00000
     41     -24.9822      2.00000
     42     -24.9635      2.00000
     43     -24.9497      2.00000
     44     -24.9200      2.00000
     45     -24.9037      2.00000
     46     -24.8782      2.00000
     47     -24.8201      2.00000
     48     -24.7154      2.00000
     49     -24.6925      2.00000
     50     -24.6176      2.00000
     51     -21.8871      2.00000
     52     -21.8005      2.00000
     53     -21.6543      2.00000
     54     -21.6514      2.00000
     55     -21.6486      2.00000
     56     -21.6293      2.00000
     57     -21.5192      2.00000
     58     -21.3959      2.00000
     59     -21.3351      2.00000
     60       3.3738      2.00000
     61       3.8590      2.00000
     62       4.1256      2.00000
     63       4.3229      2.00000
     64       4.7263      2.00000
     65       4.8982      2.00000
     66       5.1389      2.00000
     67       5.6678      2.00000
     68       6.0403      2.00000
     69       6.0773      2.00000
     70       6.1112      2.00000
     71       6.1218      2.00000
     72       6.1987      2.00000
     73       6.2475      2.00000
     74       6.3737      2.00000
     75       6.3954      2.00000
     76       6.4182      2.00000
     77       6.4505      2.00000
     78       6.5011      2.00000
     79       6.5328      2.00000
     80       6.8325      2.00000
     81       6.8769      2.00000
     82       6.9380      2.00000
     83       7.0104      2.00000
     84       7.0232      2.00000
     85       7.0548      2.00000
     86       7.0913      2.00000
     87       7.1129      2.00000
     88       7.1723      2.00000
     89       7.1932      2.00000
     90       7.2284      2.00000
     91       7.2432      2.00000
     92       7.3017      2.00000
     93       7.3070      2.00000
     94       7.3500      2.00000
     95       7.3565      2.00000
     96       7.3832      2.00000
     97       7.4080      2.00000
     98       7.4752      2.00000
     99       7.5057      2.00000
    100       7.5602      2.00000
    101       7.5996      2.00000
    102       7.6622      2.00000
    103       7.6764      2.00000
    104       7.7587      2.00000
    105       7.7708      2.00000
    106       7.8002      2.00000
    107       8.1608      2.00000
    108      10.7850      0.00000
    109      10.8498      0.00000
    110      11.0479      0.00000
    111      11.0815      0.00000
    112      11.1550      0.00000
    113      11.2023      0.00000
    114      11.2434      0.00000
    115      11.2764      0.00000
    116      11.3501      0.00000
    117      11.4032      0.00000
    118      11.4850      0.00000
    119      11.5713      0.00000
    120      11.6470      0.00000
    121      11.6866      0.00000
    122      11.7237      0.00000
    123      11.7991      0.00000
    124      11.8696      0.00000


--------------------------------------------------------------------------------------------------------


 soft charge-density along one line, spin component           1
         0         1         2         3         4         5         6         7         8         9
 total charge-density along one line
 
 pseudopotential strength for first ion, spin component:           1
  5.824 -20.558   0.003   0.001   0.001  -0.006  -0.002  -0.002
-20.558   9.449   0.004   0.002   0.002  -0.000  -0.000  -0.000
  0.003   0.004  -9.912  -0.002  -0.002   6.196   0.002   0.002
  0.001   0.002  -0.002  -9.914   0.001   0.002   6.198  -0.001
  0.001   0.002  -0.002   0.001  -9.915   0.002  -0.001   6.200
 -0.006  -0.000   6.196   0.002   0.002   7.817  -0.001  -0.002
 -0.002  -0.000   0.002   6.198  -0.001  -0.001   7.816   0.001
 -0.002  -0.000   0.002  -0.001   6.200  -0.002   0.001   7.815
 -0.001  -0.001   0.001   0.000   0.002  -0.001   0.000  -0.004
 -0.001  -0.001   0.001   0.002   0.000  -0.001  -0.004   0.000
  0.000   0.000  -0.001   0.001  -0.000   0.001  -0.001   0.001
  0.001   0.000   0.000   0.001   0.001   0.000  -0.001  -0.001
 -0.001  -0.001  -0.002  -0.000   0.001   0.002   0.000  -0.001
 -0.002  -0.001   0.001   0.000   0.003  -0.002   0.000  -0.004
 -0.002  -0.001   0.001   0.003   0.000  -0.002  -0.004   0.000
  0.000   0.000  -0.002   0.001  -0.001   0.002  -0.002   0.001
  0.001   0.001   0.000   0.001   0.001   0.000  -0.002  -0.002
 -0.001  -0.001  -0.003  -0.000   0.001   0.003   0.000  -0.001
 total augmentation occupancy for first ion, spin component:           1
  1.995  -0.046  -0.000  -0.000  -0.000  -0.000  -0.000  -0.000  -0.005  -0.005   0.001   0.003  -0.002   0.004   0.004  -0.001
 -0.046   1.304  -0.003  -0.000  -0.000  -0.002  -0.001  -0.001  -0.015  -0.016   0.006   0.020  -0.004   0.007   0.007  -0.001
 -0.000  -0.003   1.996   0.000   0.000  -0.029  -0.001  -0.001  -0.002  -0.002  -0.001   0.005  -0.002   0.001   0.001   0.001
 -0.000  -0.000   0.000   1.996  -0.000  -0.001  -0.029   0.001   0.005  -0.013   0.002  -0.002   0.000  -0.003   0.008  -0.001
 -0.000  -0.000   0.000  -0.000   1.996  -0.001   0.001  -0.029  -0.013   0.005  -0.001  -0.002   0.002   0.008  -0.003   0.001
 -0.000  -0.002  -0.029  -0.001  -0.001   0.066   0.001   0.001  -0.003  -0.003   0.006  -0.014   0.011   0.002   0.002  -0.003
 -0.000  -0.001  -0.001  -0.029   0.001   0.001   0.065  -0.001  -0.013   0.010  -0.005  -0.003  -0.000   0.008  -0.007   0.002
 -0.000  -0.001  -0.001   0.001  -0.029   0.001  -0.001   0.067   0.009  -0.013   0.002  -0.003  -0.004  -0.006   0.008  -0.001
 -0.005  -0.015  -0.002   0.005  -0.013  -0.003  -0.013   0.009   3.422   0.048   0.031  -0.039   0.001  -1.442  -0.025  -0.015
 -0.005  -0.016  -0.002  -0.013   0.005  -0.003   0.010  -0.013   0.048   3.420  -0.014  -0.041   0.028  -0.025  -1.441   0.007
  0.001   0.006  -0.001   0.002  -0.001   0.006  -0.005   0.002   0.031  -0.014   2.697   0.013   0.007  -0.014   0.007  -1.225
  0.003   0.020   0.005  -0.002  -0.002  -0.014  -0.003  -0.003  -0.039  -0.041   0.013   3.392   0.023   0.015   0.015  -0.005
 -0.002  -0.004  -0.002   0.000   0.002   0.011  -0.000  -0.004   0.001   0.028   0.007   0.023   2.677  -0.000  -0.013  -0.000
  0.004   0.007   0.001  -0.003   0.008   0.002   0.008  -0.006  -1.442  -0.025  -0.014   0.015  -0.000   0.620   0.013   0.007
  0.004   0.007   0.001   0.008  -0.003   0.002  -0.007   0.008  -0.025  -1.441   0.007   0.015  -0.013   0.013   0.619  -0.003
 -0.001  -0.001   0.001  -0.001   0.001  -0.003   0.002  -0.001  -0.015   0.007  -1.225  -0.005  -0.000   0.007  -0.003   0.563
 -0.003  -0.012  -0.003   0.001   0.001   0.008   0.001   0.001   0.015   0.015  -0.005  -1.432  -0.008  -0.006  -0.006   0.002
  0.002  -0.001   0.001  -0.000  -0.001  -0.005   0.000   0.002  -0.000  -0.013  -0.000  -0.009  -1.223   0.000   0.006  -0.002


------------------------ aborting loop because EDIFF is reached ----------------------------------------


    CHARGE:  cpu time      0.0848: real time      0.0851
    FORLOC:  cpu time      0.0005: real time      0.0005
    FORNL :  cpu time      0.7915: real time      0.7941
    STRESS:  cpu time      0.9852: real time      0.9888
    FORCOR:  cpu time      0.0043: real time      0.0043
    FORHAR:  cpu time      0.0013: real time      0.0014
    MIXING:  cpu time      0.0007: real time      0.0007
    OFIELD:  cpu time      0.0000: real time      0.0000

  FORCE on cell =-STRESS in cart. coord.  units (eV):
  Direction    XX          YY          ZZ          XY          YZ          ZX
  --------------------------------------------------------------------------------------
  Alpha Z  1877.79436  1877.79436  1877.79436
  Ewald   -7061.42579 -7081.41854 -7061.42579    -3.16152    -3.16152   -36.88445
  Hartree  1213.38606  1192.64831  1212.62415    -3.11176    -3.96207   -34.20714
  E(xc)    -942.99131  -942.97350  -942.98372     0.00940     0.03154     0.05745
  Local    1617.51059  1657.65899  1618.35947     5.84833     6.43131    69.83970
  n-local  -394.53996  -392.63560  -395.09157     0.30061     0.44681     0.04826
  augment   563.68686   563.46830   563.64376     0.08728     0.08232     0.17502
  Kinetic  3101.55815  3100.57744  3101.88527    -0.21998    -0.18667     0.71275
  Fock        0.00000     0.00000     0.00000     0.00000     0.00000     0.00000
  -------------------------------------------------------------------------------------
  Total     -25.02103   -24.88024   -25.19406    -0.24764    -0.31829    -0.25841
  in kB    -140.71423  -139.92246  -141.68734    -1.39272    -1.79000    -1.45327
  external pressure =     -140.77 kB  Pullay stress =        0.00 kB


 VOLUME and BASIS-vectors are now :
 -----------------------------------------------------------------------------
  energy-cutoff  :      250.00
  volume of cell :      284.89
      direct lattice vectors                 reciprocal lattice vectors
     6.580000000  0.000000000  0.000000000     0.151975684  0.000000000  0.000000000
     0.000000000  6.580000000  0.000000000     0.000000000  0.151975684  0.000000000
     0.000000000  0.000000000  6.580000000     0.000000000  0.000000000  0.151975684

  length of vectors
     6.580000000  6.580000000  6.580000000     0.151975684  0.151975684  0.151975684


 FORCES acting on ions
    electron-ion (+dipol)            ewald-force                    non-local-force                 convergence-correction
 -----------------------------------------------------------------------------------------------
   0.308E+02 0.518E+02 0.308E+02   -.306E+02 -.510E+02 -.306E+02   0.105E-01 -.215E+00 0.699E-02   0.652E-04 0.272E-04 -.432E-04
   -.104E+02 0.512E+02 0.104E+02   0.102E+02 -.510E+02 -.102E+02   0.140E+00 0.622E-01 -.186E-01   0.575E-05 0.324E-05 -.369E-04
   0.104E+02 0.512E+02 -.104E+02   -.102E+02 -.510E+02 0.102E+02   -.135E+00 0.600E-01 0.135E-01   -.115E-04 0.229E-05 0.254E-04
   0.113E+02 -.550E+02 0.111E+02   -.110E+02 0.549E+02 -.110E+02   -.998E-01 -.640E-01 -.602E-03   0.223E-04 -.229E-04 0.796E-05
   0.330E+02 0.554E+02 -.330E+02   -.329E+02 -.549E+02 0.329E+02   0.549E-01 0.592E-01 -.759E-01   0.881E-04 0.651E-04 0.419E-04
   0.330E+02 -.552E+02 0.330E+02   -.329E+02 0.549E+02 -.329E+02   0.740E-01 -.913E-01 0.788E-01   0.545E-04 -.125E-04 -.609E-04
   -.331E+02 0.556E+02 -.331E+02   0.329E+02 -.549E+02 0.329E+02   -.131E-02 -.148E+00 -.724E-02   -.884E-04 0.757E-04 0.306E-04
   -.262E+02 -.439E+02 0.262E+02   0.259E+02 0.431E+02 -.259E+02   0.294E-01 0.127E+00 -.216E-01   -.533E-04 -.430E-04 -.300E-04
   -.888E+01 -.435E+02 -.888E+01   0.863E+01 0.431E+02 0.863E+01   0.882E-01 -.181E-01 0.243E-01   -.804E-05 -.163E-04 -.135E-04
   0.262E+02 -.440E+02 -.262E+02   -.259E+02 0.431E+02 0.259E+02   -.239E-01 0.133E+00 0.291E-01   0.616E-04 -.689E-04 0.351E-04
   -.889E+01 0.433E+02 -.885E+01   0.863E+01 -.431E+02 0.863E+01   0.831E-01 0.344E-01 0.223E-01   0.239E-04 0.136E-05 0.342E-04
   0.892E+01 0.434E+02 0.890E+01   -.863E+01 -.431E+02 -.863E+01   -.899E-01 0.428E-01 -.225E-01   -.227E-05 0.398E-04 -.468E-05
   -.112E+02 -.551E+02 0.111E+02   0.110E+02 0.549E+02 -.110E+02   -.192E-01 -.538E-02 0.341E-01   -.204E-04 -.652E-05 0.202E-05
   -.331E+02 0.554E+02 0.331E+02   0.329E+02 -.549E+02 -.329E+02   -.599E-01 0.170E+00 0.446E-01   -.746E-04 0.672E-04 -.235E-04
   0.112E+02 -.551E+02 -.111E+02   -.110E+02 0.549E+02 0.110E+02   0.795E-02 -.629E-02 -.264E-01   0.869E-05 -.814E-05 -.141E-04
   -.331E+02 -.554E+02 -.331E+02   0.329E+02 0.549E+02 0.329E+02   -.561E-01 -.168E+00 -.540E-01   -.746E-04 -.797E-04 0.427E-04
 -----------------------------------------------------------------------------------------------
   -.256E-02 0.271E-01 -.271E-01   -.171E-12 0.142E-13 -.142E-13   0.256E-02 -.271E-01 0.271E-01   -.299E-05 0.240E-04 -.690E-05
 
 
 POSITION                                       TOTAL-FORCE (eV/Angst)
 -----------------------------------------------------------------------------------
      4.93500      1.64500      4.93500         0.239034      0.598661      0.241347
      3.29000      0.00000      0.00000        -0.100694      0.269051      0.162519
      0.00000      0.00000      3.29000         0.111330      0.268678     -0.150805
      0.00000      3.29000      0.00000         0.177877     -0.185409      0.165536
      4.93500      1.64500      1.64500         0.145200      0.529479     -0.150534
      4.93500      4.93500      4.93500         0.094290     -0.425759      0.096101
      1.64500      1.64500      1.64500        -0.170409      0.507743     -0.168400
      1.64500      4.93500      4.93500        -0.276212     -0.649682      0.258528
      3.29000      3.29000      3.29000        -0.158865     -0.327907     -0.225254
      4.93500      4.93500      1.64500         0.264508     -0.689326     -0.282894
      3.29000      0.00000      3.29000        -0.177732      0.230645     -0.203091
      0.00000      0.00000      0.00000         0.201537      0.304388      0.246941
      3.29000      3.29000      0.00000        -0.217226     -0.224510      0.185053
      1.64500      1.64500      4.93500        -0.179629      0.629550      0.178910
      0.00000      3.29000      3.29000         0.217624     -0.227073     -0.183740
      1.64500      4.93500      1.64500        -0.170632     -0.608529     -0.170216
 -----------------------------------------------------------------------------------
    total drift:                               -0.000005     -0.000027     -0.000002


--------------------------------------------------------------------------------------------------------



  FREE ENERGIE OF THE ION-ELECTRON SYSTEM (eV)
  ---------------------------------------------------
  free  energy   TOTEN  =      -186.07191017 eV

  energy  without entropy=     -186.06994150  energy(sigma->0) =     -186.07092583
 


--------------------------------------------------------------------------------------------------------


    POTLOK:  cpu time      0.0056: real time      0.0057


--------------------------------------------------------------------------------------------------------


     LOOP+:  cpu time     87.4772: real time     88.2453
    4ORBIT:  cpu time      0.0000: real time      0.0000

 total amount of memory used by VASP MPI-rank0    47987. kBytes
=======================================================================

   base      :      30000. kBytes
   nonl-proj :       8332. kBytes
   fftplans  :        456. kBytes
   grid      :        919. kBytes
   one-center:         31. kBytes
   wavefun   :       8249. kBytes
 
  
  
 General timing and accounting informations for this job:
 ========================================================
  
                  Total CPU time used (sec):       90.376
                            User time (sec):       89.347
                          System time (sec):        1.029
                         Elapsed time (sec):       92.485
  
                   Maximum memory used (kb):       89824.
                   Average memory used (kb):          N/A
  
                          Minor page faults:         8854
                          Major page faults:            0
                 Voluntary context switches:          216
