 vasp.6.3.1 04May22 (build Jul 26 2022 04:02:40) complex                        
  
 executed on             LinuxIFC date 2023.11.30  04:33:33
 running on   48 total cores
 distrk:  each k-point on   48 cores,    1 groups
 distr:  one band on NCORE=  12 cores,    4 groups


--------------------------------------------------------------------------------------------------------


 INCAR:
   ISTART = 0
   NWRITE = 2
   PREC = Accurate
   ENCUT = 250
   GGA = PE
   NSW = 0
   ISIF = 2
   ISYM = 2
   NBLOCK = 1
   KBLOCK = 1
   IBRION = -1
   NELM = 80
   EDIFF = 1E-08
   EDIFFG = -0.01
   ALGO = Normal
   LDIAG = .TRUE.
   LREAL = .FALSE.
   ISMEAR = 0
   SIGMA = 0.02
   ICHARG = 2
   LPLANE = .TRUE.
   NPAR = 4
   LSCALU = .FALSE.
   NSIM = 4
   LWAVE = .FALSE.
   LCHARG = .FALSE.
   ICORELEVEL = 1

 POTCAR:    PAW_PBE Nb_sv 25May2007               
 POTCAR:    PAW_PBE Mo_sv 02Feb2006               
 POTCAR:    PAW_PBE Ta_pv 07Sep2000               
 POTCAR:    PAW_PBE W_sv 04Sep2015                
 POTCAR:    PAW_PBE Nb_sv 25May2007               
   SHA256 =  0e8fc07c9fcd1164cf2ade22d0399fd28f85e91cd773dfa6cf24839a48c95e24 Nb_sv/POTCAR          
   COPYR  = (c) Copyright 25May2007 Georg Kresse                                                    
   COPYR  = This file is part of the software VASP. Any use, copying, and all other rights are regul
   COPYR  = If you do not have a valid VASP license, you may not use, copy or distribute this file. 
   VRHFIN =Nb: 4p5s4d                                                                               
   LEXCH  = PE                                                                                      
   EATOM  =  1555.1913 eV,  114.3033 Ry                                                             
                                                                                                    
   TITEL  = PAW_PBE Nb_sv 25May2007                                                                 
   LULTRA =        F    use ultrasoft PP ?                                                          
   IUNSCR =        1    unscreen: 0-lin 1-nonlin 2-no                                               
   RPACOR =    1.800    partial core radius                                                         
   POMASS =   92.910; ZVAL   =   13.000    mass and valenz                                          
   RCORE  =    2.400    outmost cutoff radius                                                       
   RWIGS  =    2.400; RWIGS  =    1.270    wigner-seitz radius (au A)                               
   ENMAX  =  293.235; ENMIN  =  219.927 eV                                                          
   ICORE  =        3    local potential                                                             
   LCOR   =        T    correct aug charges                                                         
   LPAW   =        T    paw PP                                                                      
   EAUG   =  455.659                                                                                
   DEXC   =    0.000                                                                                
   RMAX   =    2.456    core radius for proj-oper                                                   
   RAUG   =    1.300    factor for augmentation sphere                                              
   RDEP   =    2.451    radius for radial grids                                                     
   RDEPT  =    1.956    core radius for aug-charge                                                  
                                                                                                    
   Atomic configuration                                                                             
   11 entries                                                                                       
     n  l   j            E        occ.                                                              
     1  0  0.50    -18805.2457   2.0000                                                             
     2  0  0.50     -2630.2869   2.0000                                                             
     2  1  1.50     -2348.4046   6.0000                                                             
     3  0  0.50      -438.8757   2.0000                                                             
     3  1  1.50      -346.7588   6.0000                                                             
     3  2  2.50      -196.2560  10.0000                                                             
     4  0  0.50       -58.3859   2.0000                                                             
     5  0  0.50        -3.9816   1.0000                                                             
     4  1  1.50       -34.5141   6.0000                                                             
     4  2  2.50        -3.0408   4.0000                                                             
     4  3  2.50        -1.3606   0.0000                                                             
   Description                                                                                      
     l       E           TYP  RCUT    TYP  RCUT                                                     
     0    -58.3859094     23  2.200                                                                 
     0     -3.9816262     23  2.200                                                                 
     1    -34.5140738     23  2.200                                                                 
     1     13.6058260     23  2.200                                                                 
     2     -3.0408010     23  2.200                                                                 
     2     -0.1283038     23  2.200                                                                 
     3     -1.3605826     23  2.400                                                                 
  local pseudopotential read in
  partial core-charges read in
  partial kinetic energy density read in
  atomic valenz-charges read in
  non local Contribution for L=           0  read in
    real space projection operators read in
  non local Contribution for L=           0  read in
    real space projection operators read in
  non local Contribution for L=           1  read in
    real space projection operators read in
  non local Contribution for L=           1  read in
    real space projection operators read in
  non local Contribution for L=           2  read in
    real space projection operators read in
  non local Contribution for L=           2  read in
    real space projection operators read in
    PAW grid and wavefunctions read in
 
   number of l-projection  operators is LMAX  =           6
   number of lm-projection operators is LMMAX =          18
 
 POTCAR:    PAW_PBE Mo_sv 02Feb2006               
   SHA256 =  2731df97e41766cc617548c5a8267718fdef1f509ac6bafa01e745abea2bdfaa Mo_sv/POTCAR          
   COPYR  = (c) Copyright 02Feb2006 Georg Kresse                                                    
   COPYR  = This file is part of the software VASP. Any use, copying, and all other rights are regul
   COPYR  = If you do not have a valid VASP license, you may not use, copy or distribute this file. 
   VRHFIN =Mo: 4p5s4d                                                                               
   LEXCH  = PE                                                                                      
   EATOM  =  1862.2866 eV,  136.8742 Ry                                                             
                                                                                                    
   TITEL  = PAW_PBE Mo_sv 02Feb2006                                                                 
   LULTRA =        F    use ultrasoft PP ?                                                          
   IUNSCR =        1    unscreen: 0-lin 1-nonlin 2-no                                               
   RPACOR =    2.200    partial core radius                                                         
   POMASS =   95.940; ZVAL   =   14.000    mass and valenz                                          
   RCORE  =    2.500    outmost cutoff radius                                                       
   RWIGS  =    2.750; RWIGS  =    1.455    wigner-seitz radius (au A)                               
   ENMAX  =  242.676; ENMIN  =  182.007 eV                                                          
   ICORE  =        3    local potential                                                             
   LCOR   =        T    correct aug charges                                                         
   LPAW   =        T    paw PP                                                                      
   EAUG   =  446.014                                                                                
   DEXC   =    0.000                                                                                
   RMAX   =    2.563    core radius for proj-oper                                                   
   RAUG   =    1.300    factor for augmentation sphere                                              
   RDEP   =    2.641    radius for radial grids                                                     
   RDEPT  =    2.031    core radius for aug-charge                                                  
                                                                                                    
   Atomic configuration                                                                             
   11 entries                                                                                       
     n  l   j            E        occ.                                                              
     1  0  0.50    -19819.0341   2.0000                                                             
     2  0  0.50     -2799.0127   2.0000                                                             
     2  1  1.50     -2502.0276   6.0000                                                             
     3  0  0.50      -476.4449   2.0000                                                             
     3  1  1.50      -379.1496   6.0000                                                             
     3  2  2.50      -220.9367  10.0000                                                             
     4  0  0.50       -64.3378   2.0000                                                             
     5  0  0.50        -4.0862   1.0000                                                             
     4  1  1.50       -38.4773   6.0000                                                             
     4  2  2.50        -3.7535   5.0000                                                             
     4  3  2.50        -1.3606   0.0000                                                             
   Description                                                                                      
     l       E           TYP  RCUT    TYP  RCUT                                                     
     0    -64.3377829     23  2.100                                                                 
     0     -4.0861640     23  2.400                                                                 
     1    -38.4772993     23  2.100                                                                 
     1     13.6058260     23  2.100                                                                 
     2     -3.7534941     23  2.400                                                                 
     2     -5.1140767     23  2.400                                                                 
     3     -4.0817478     23  2.500                                                                 
  local pseudopotential read in
  partial core-charges read in
  partial kinetic energy density read in
  atomic valenz-charges read in
  non local Contribution for L=           0  read in
    real space projection operators read in
  non local Contribution for L=           0  read in
    real space projection operators read in
  non local Contribution for L=           1  read in
    real space projection operators read in
  non local Contribution for L=           1  read in
    real space projection operators read in
  non local Contribution for L=           2  read in
    real space projection operators read in
  non local Contribution for L=           2  read in
    real space projection operators read in
    PAW grid and wavefunctions read in
 
   number of l-projection  operators is LMAX  =           6
   number of lm-projection operators is LMMAX =          18
 
 POTCAR:    PAW_PBE Ta_pv 07Sep2000               
   SHA256 =  00d0a14a36c127416459414afb8617d9754996fffa60a2465888e660b20a452f Ta_pv/POTCAR          
   COPYR  = (c) Copyright 07Sep2000 Georg Kresse                                                    
   COPYR  = This file is part of the software VASP. Any use, copying, and all other rights are regul
   COPYR  = If you do not have a valid VASP license, you may not use, copy or distribute this file. 
   VRHFIN =Ta:  5p6s5d                                                                              
   LEXCH  = PE                                                                                      
   EATOM  =  1047.1984 eV,   76.9669 Ry                                                             
                                                                                                    
   TITEL  = PAW_PBE Ta_pv 07Sep2000                                                                 
   LULTRA =        F    use ultrasoft PP ?                                                          
   IUNSCR =        1    unscreen: 0-lin 1-nonlin 2-no                                               
   RPACOR =    2.330    partial core radius                                                         
   POMASS =  180.948; ZVAL   =   11.000    mass and valenz                                          
   RCORE  =    2.500    outmost cutoff radius                                                       
   RWIGS  =    2.840; RWIGS  =    1.503    wigner-seitz radius (au A)                               
   ENMAX  =  223.667; ENMIN  =  167.750 eV                                                          
   RCLOC  =    2.205    cutoff for local pot                                                        
   LCOR   =        T    correct aug charges                                                         
   LPAW   =        T    paw PP                                                                      
   EAUG   =  377.421                                                                                
   DEXC   =    0.000                                                                                
   RMAX   =    2.551    core radius for proj-oper                                                   
   RAUG   =    1.300    factor for augmentation sphere                                              
   RDEP   =    2.526    radius for radial grids                                                     
   RDEPT  =    2.132    core radius for aug-charge                                                  
                                                                                                    
   Atomic configuration                                                                             
   15 entries                                                                                       
     n  l   j            E        occ.                                                              
     1  0  0.50    -67341.2801   2.0000                                                             
     2  0  0.50    -11566.9369   2.0000                                                             
     2  1  1.50    -10134.1175   6.0000                                                             
     3  0  0.50     -2648.5614   2.0000                                                             
     3  1  1.50     -2222.6006   6.0000                                                             
     3  2  2.50     -1726.3114  10.0000                                                             
     4  0  0.50      -538.6957   2.0000                                                             
     4  1  1.50      -399.0125   6.0000                                                             
     4  2  2.50      -220.3955  10.0000                                                             
     4  3  3.50       -23.0371  14.0000                                                             
     5  0  0.50       -71.2900   2.0000                                                             
     5  1  1.50       -37.8224   6.0000                                                             
     5  2  2.50        -2.6455   4.0000                                                             
     6  0  0.50        -4.9623   1.0000                                                             
     5  3  2.50        -1.3606   0.0000                                                             
   Description                                                                                      
     l       E           TYP  RCUT    TYP  RCUT                                                     
     1    -37.8224449     23  2.500                                                                 
     1      1.3605826     23  2.500                                                                 
     2     -2.6454718     23  2.500                                                                 
     2     -0.6258570     23  2.500                                                                 
     0     -4.9622674     23  2.500                                                                 
     0      4.7531427     23  2.500                                                                 
  local pseudopotential read in
  partial core-charges read in
  partial kinetic energy density read in
  atomic valenz-charges read in
  non local Contribution for L=           1  read in
    real space projection operators read in
  non local Contribution for L=           1  read in
    real space projection operators read in
  non local Contribution for L=           2  read in
    real space projection operators read in
  non local Contribution for L=           2  read in
    real space projection operators read in
  non local Contribution for L=           0  read in
    real space projection operators read in
  non local Contribution for L=           0  read in
    real space projection operators read in
    PAW grid and wavefunctions read in
 
   number of l-projection  operators is LMAX  =           6
   number of lm-projection operators is LMMAX =          18
 
 POTCAR:    PAW_PBE W_sv 04Sep2015                
   SHA256 =  931c2d770f65867ef30f3db3421922900fc0890ebac5c3e12f63b6a2064023d7 W_sv/POTCAR           
   COPYR  = (c) Copyright 04Sep2015 Georg Kresse                                                    
   COPYR  = This file is part of the software VASP. Any use, copying, and all other rights are regul
   COPYR  = If you do not have a valid VASP license, you may not use, copy or distribute this file. 
   VRHFIN =W : 5p6s5d                                                                               
   LEXCH  = PE                                                                                      
   EATOM  =  1865.5791 eV,  137.1162 Ry                                                             
                                                                                                    
   TITEL  = PAW_PBE W_sv 04Sep2015                                                                  
   LULTRA =        F    use ultrasoft PP ?                                                          
   IUNSCR =        1    unscreen: 0-lin 1-nonlin 2-no                                               
   RPACOR =    2.330    partial core radius                                                         
   POMASS =  183.850; ZVAL   =   14.000    mass and valenz                                          
   RCORE  =    2.500    outmost cutoff radius                                                       
   RWIGS  =    2.750; RWIGS  =    1.455    wigner-seitz radius (au A)                               
   ENMAX  =  223.057; ENMIN  =  167.293 eV                                                          
   ICORE  =        3    local potential                                                             
   LCOR   =        T    correct aug charges                                                         
   LPAW   =        T    paw PP                                                                      
   EAUG   =  373.438                                                                                
   DEXC   =    0.000                                                                                
   RMAX   =    2.565    core radius for proj-oper                                                   
   RAUG   =    1.300    factor for augmentation sphere                                              
   RDEP   =    2.539    radius for radial grids                                                     
   RDEPT  =    2.126    core radius for aug-charge                                                  
                                                                                                    
   Atomic configuration                                                                             
   15 entries                                                                                       
     n  l   j            E        occ.                                                              
     1  0  0.50    -69465.5834   2.0000                                                             
     2  0  0.50    -11986.2640   2.0000                                                             
     2  1  1.50    -10479.8613   6.0000                                                             
     3  0  0.50     -2759.0756   2.0000                                                             
     3  1  1.50     -2313.1855   6.0000                                                             
     3  2  2.50     -1801.1183  10.0000                                                             
     4  0  0.50      -567.6789   2.0000                                                             
     4  1  1.50      -421.4692   6.0000                                                             
     4  2  2.50      -236.3471  10.0000                                                             
     4  3  3.50       -31.2665  14.0000                                                             
     5  0  0.50       -77.1084   2.0000                                                             
     6  0  0.50        -5.1438   1.0000                                                             
     5  1  1.50       -41.3856   6.0000                                                             
     5  2  2.50        -3.3185   5.0000                                                             
     5  3  2.50        -1.3606   0.0000                                                             
   Description                                                                                      
     l       E           TYP  RCUT    TYP  RCUT                                                     
     0    -77.1084470     23  2.100                                                                 
     0     -5.1437956     23  2.300                                                                 
     1    -41.3855615     23  2.500                                                                 
     1     -2.7211652     23  2.500                                                                 
     2     -3.3185025     23  2.500                                                                 
     2     -1.5965151     23  2.500                                                                 
     3     -1.3605826     23  2.500                                                                 
  local pseudopotential read in
  partial core-charges read in
  partial kinetic energy density read in
  kinetic energy density of atom read in
  atomic valenz-charges read in
  non local Contribution for L=           0  read in
    real space projection operators read in
  non local Contribution for L=           0  read in
    real space projection operators read in
  non local Contribution for L=           1  read in
    real space projection operators read in
  non local Contribution for L=           1  read in
    real space projection operators read in
  non local Contribution for L=           2  read in
    real space projection operators read in
  non local Contribution for L=           2  read in
    real space projection operators read in
    PAW grid and wavefunctions read in
 
   number of l-projection  operators is LMAX  =           6
   number of lm-projection operators is LMMAX =          18
 
  PAW_PBE Nb_sv 25May2007               :
 energy of atom  1       EATOM=-1555.1913
 kinetic energy error for atom=    0.2155 (will be added to EATOM!!)
  PAW_PBE Mo_sv 02Feb2006               :
 energy of atom  2       EATOM=-1862.2866
 kinetic energy error for atom=    0.1102 (will be added to EATOM!!)
  PAW_PBE Ta_pv 07Sep2000               :
 energy of atom  3       EATOM=-1047.1984
 kinetic energy error for atom=    0.0394 (will be added to EATOM!!)
  PAW_PBE W_sv 04Sep2015                :
 energy of atom  4       EATOM=-1865.5791
 kinetic energy error for atom=    0.0589 (will be added to EATOM!!)
 
 
 POSCAR: Nb-Mo-Ta-W alloy
  positions in direct lattice
  No initial velocities read in
 exchange correlation table for  LEXCH =        8
   RHO(1)=    0.500       N(1)  =     2000
   RHO(2)=  100.500       N(2)  =     4000
 


--------------------------------------------------------------------------------------------------------


 ion  position               nearest neighbor table
   1  0.000  0.500  0.000-   3 2.85   4 2.85   5 2.85   7 2.85   8 2.85  11 2.85  15 2.85  16 2.85
                            12 3.29  13 3.29  13 3.29  12 3.29
   2  0.000  0.000  0.000-   3 2.85   4 2.85   5 2.85   7 2.85   8 2.85  11 2.85  15 2.85  16 2.85

   3  0.750  0.250  0.750-   1 2.85   2 2.85   6 2.85   9 2.85  10 2.85  12 2.85  13 2.85  14 2.85
                            15 3.29  15 3.29
   4  0.250  0.250  0.250-   1 2.85   2 2.85   6 2.85   9 2.85  10 2.85  12 2.85  13 2.85  14 2.85

   5  0.250  0.750  0.250-   1 2.85   2 2.85   6 2.85   9 2.85  10 2.85  12 2.85  13 2.85  14 2.85
                            11 3.29  11 3.29
   6  0.500  0.000  0.000-   3 2.85   4 2.85   5 2.85   7 2.85   8 2.85  11 2.85  15 2.85  16 2.85
                            12 3.29  14 3.29  14 3.29  12 3.29
   7  0.250  0.750  0.750-   1 2.85   2 2.85   6 2.85   9 2.85  10 2.85  12 2.85  13 2.85  14 2.85
                             8 3.29  15 3.29   8 3.29  15 3.29
   8  0.250  0.250  0.750-   1 2.85   2 2.85   6 2.85   9 2.85  10 2.85  12 2.85  13 2.85  14 2.85
                             7 3.29   7 3.29
   9  0.000  0.000  0.500-   3 2.85   4 2.85   5 2.85   7 2.85   8 2.85  11 2.85  15 2.85  16 2.85
                            13 3.29  14 3.29  13 3.29  14 3.29
  10  0.500  0.500  0.500-   3 2.85   4 2.85   5 2.85   7 2.85   8 2.85  11 2.85  15 2.85  16 2.85
                            14 3.29  12 3.29  13 3.29  12 3.29  14 3.29  13 3.29
  11  0.750  0.750  0.250-   1 2.85   2 2.85   6 2.85   9 2.85  10 2.85  12 2.85  13 2.85  14 2.85
                             5 3.29  15 3.29  16 3.29  15 3.29  16 3.29   5 3.29
  12  0.500  0.500  0.000-   3 2.85   4 2.85   5 2.85   7 2.85   8 2.85  11 2.85  15 2.85  16 2.85
                             1 3.29   6 3.29  10 3.29  10 3.29   6 3.29   1 3.29
  13  0.000  0.500  0.500-   3 2.85   4 2.85   5 2.85   7 2.85   8 2.85  11 2.85  15 2.85  16 2.85
                             1 3.29   9 3.29  10 3.29   1 3.29   9 3.29  10 3.29
  14  0.500  0.000  0.500-   3 2.85   4 2.85   5 2.85   7 2.85   8 2.85  11 2.85  15 2.85  16 2.85
                             6 3.29   9 3.29  10 3.29   6 3.29  10 3.29   9 3.29
  15  0.750  0.750  0.750-   1 2.85   2 2.85   6 2.85   9 2.85  10 2.85  12 2.85  13 2.85  14 2.85
                             3 3.29   7 3.29  11 3.29  11 3.29   3 3.29   7 3.29
  16  0.750  0.250  0.250-   1 2.85   2 2.85   6 2.85   9 2.85  10 2.85  12 2.85  13 2.85  14 2.85
                            11 3.29  11 3.29
 
  LATTYP: Found a simple cubic cell.
 ALAT       =     6.5800000000
  
  Lattice vectors:
  
 A1 = (   6.5800000000,   0.0000000000,   0.0000000000)
 A2 = (   0.0000000000,   6.5800000000,   0.0000000000)
 A3 = (   0.0000000000,   0.0000000000,   6.5800000000)


Analysis of symmetry for initial positions (statically):
=====================================================================
 Subroutine PRICEL returns:
 Original cell was already a primitive cell.
 

 Routine SETGRP: Setting up the symmetry group for a 
 simple cubic supercell.


 Subroutine GETGRP returns: Found  1 space group operations
 (whereof  1 operations were pure point group operations)
 out of a pool of 48 trial point group operations.


The static configuration has the point symmetry C_1 .


Analysis of symmetry for dynamics (positions and initial velocities):
=====================================================================
 Subroutine PRICEL returns:
 Original cell was already a primitive cell.
 

 Routine SETGRP: Setting up the symmetry group for a 
 simple cubic supercell.


 Subroutine GETGRP returns: Found  1 space group operations
 (whereof  1 operations were pure point group operations)
 out of a pool of 48 trial point group operations.


The dynamic configuration has the point symmetry C_1 .


 Subroutine INISYM returns: Found  1 space group operations
 (whereof  1 operations are pure point group operations),
 and found     1 'primitive' translations


----------------------------------------------------------------------------------------

                                     Primitive cell                                     

  volume of cell :     284.8903

  direct lattice vectors                    reciprocal lattice vectors
     6.580000000  0.000000000  0.000000000     0.151975684  0.000000000  0.000000000
     0.000000000  6.580000000  0.000000000     0.000000000  0.151975684  0.000000000
     0.000000000  0.000000000  6.580000000     0.000000000  0.000000000  0.151975684

  length of vectors
     6.580000000  6.580000000  6.580000000     0.151975684  0.151975684  0.151975684

  position of ions in fractional coordinates (direct lattice)
     0.000000000  0.500000000  0.000000000
     0.000000000  0.000000000  0.000000000
     0.750000000  0.250000000  0.750000000
     0.250000000  0.250000000  0.250000000
     0.250000000  0.750000000  0.250000000
     0.500000000  0.000000000  0.000000000
     0.250000000  0.750000000  0.750000000
     0.250000000  0.250000000  0.750000000
     0.000000000  0.000000000  0.500000000
     0.500000000  0.500000000  0.500000000
     0.750000000  0.750000000  0.250000000
     0.500000000  0.500000000  0.000000000
     0.000000000  0.500000000  0.500000000
     0.500000000  0.000000000  0.500000000
     0.750000000  0.750000000  0.750000000
     0.750000000  0.250000000  0.250000000

  ion indices of the primitive-cell ions
   primitive index   ion index
                 1           1
                 2           2
                 3           3
                 4           4
                 5           5
                 6           6
                 7           7
                 8           8
                 9           9
                10          10
                11          11
                12          12
                13          13
                14          14
                15          15
                16          16

----------------------------------------------------------------------------------------

 
 
 KPOINTS: K-Spacing Value to Generate K-Mesh: 0.03

Automatic generation of k-mesh.
 Grid dimensions read from file:
 generate k-points for:    5    5    5

 Generating k-lattice:

  Cartesian coordinates                     Fractional coordinates (reciprocal lattice)
     0.030395137  0.000000000  0.000000000     0.200000000  0.000000000  0.000000000
     0.000000000  0.030395137  0.000000000     0.000000000  0.200000000  0.000000000
     0.000000000  0.000000000  0.030395137     0.000000000  0.000000000  0.200000000

  Length of vectors
     0.030395137  0.030395137  0.030395137

  Shift w.r.t. Gamma in fractional coordinates (k-lattice)
     0.000000000  0.000000000  0.000000000

 
 Subroutine IBZKPT returns following result:
 ===========================================
 
 Found     63 irreducible k-points:
 
 Following reciprocal coordinates:
            Coordinates               Weight
  0.000000  0.000000  0.000000      1.000000
  0.200000  0.000000  0.000000      2.000000
  0.000000  0.200000  0.000000      2.000000
  0.000000  0.000000  0.200000      2.000000
  0.400000  0.000000  0.000000      2.000000
  0.000000  0.400000  0.000000      2.000000
  0.000000  0.000000  0.400000      2.000000
  0.200000  0.200000  0.000000      2.000000
  0.000000  0.200000  0.200000      2.000000
  0.200000  0.000000  0.200000      2.000000
 -0.200000  0.200000  0.000000      2.000000
 -0.200000  0.000000  0.200000      2.000000
  0.000000 -0.200000  0.200000      2.000000
  0.400000  0.200000  0.000000      2.000000
  0.000000  0.400000  0.200000      2.000000
  0.200000  0.000000  0.400000      2.000000
 -0.200000  0.400000  0.000000      2.000000
 -0.400000  0.000000  0.200000      2.000000
  0.000000  0.200000  0.400000      2.000000
  0.000000 -0.400000  0.200000      2.000000
 -0.200000  0.000000  0.400000      2.000000
  0.400000  0.000000  0.200000      2.000000
  0.000000 -0.200000  0.400000      2.000000
  0.400000 -0.200000  0.000000      2.000000
  0.200000  0.400000  0.000000      2.000000
  0.400000  0.400000  0.000000      2.000000
  0.000000  0.400000  0.400000      2.000000
  0.400000  0.000000  0.400000      2.000000
 -0.400000  0.400000  0.000000      2.000000
 -0.400000  0.000000  0.400000      2.000000
  0.000000 -0.400000  0.400000      2.000000
  0.200000  0.200000  0.200000      2.000000
 -0.200000  0.200000  0.200000      2.000000
 -0.200000 -0.200000  0.200000      2.000000
  0.200000 -0.200000  0.200000      2.000000
  0.400000  0.200000  0.200000      2.000000
  0.200000  0.400000  0.200000      2.000000
  0.200000  0.200000  0.400000      2.000000
 -0.200000  0.400000  0.200000      2.000000
 -0.400000  0.200000  0.200000      2.000000
 -0.200000  0.200000  0.400000      2.000000
 -0.400000 -0.200000  0.200000      2.000000
 -0.200000 -0.400000  0.200000      2.000000
 -0.200000 -0.200000  0.400000      2.000000
  0.200000 -0.400000  0.200000      2.000000
  0.400000 -0.200000  0.200000      2.000000
  0.200000 -0.200000  0.400000      2.000000
  0.400000  0.400000  0.200000      2.000000
  0.200000  0.400000  0.400000      2.000000
  0.400000  0.200000  0.400000      2.000000
 -0.400000  0.400000  0.200000      2.000000
 -0.400000  0.200000  0.400000      2.000000
 -0.200000  0.400000  0.400000      2.000000
 -0.400000 -0.400000  0.200000      2.000000
 -0.200000 -0.400000  0.400000      2.000000
 -0.400000 -0.200000  0.400000      2.000000
  0.400000 -0.400000  0.200000      2.000000
  0.400000 -0.200000  0.400000      2.000000
  0.200000 -0.400000  0.400000      2.000000
  0.400000  0.400000  0.400000      2.000000
 -0.400000  0.400000  0.400000      2.000000
 -0.400000 -0.400000  0.400000      2.000000
  0.400000 -0.400000  0.400000      2.000000
 
 Following cartesian coordinates:
            Coordinates               Weight
  0.000000  0.000000  0.000000      1.000000
  0.030395  0.000000  0.000000      2.000000
  0.000000  0.030395  0.000000      2.000000
  0.000000  0.000000  0.030395      2.000000
  0.060790  0.000000  0.000000      2.000000
  0.000000  0.060790  0.000000      2.000000
  0.000000  0.000000  0.060790      2.000000
  0.030395  0.030395  0.000000      2.000000
  0.000000  0.030395  0.030395      2.000000
  0.030395  0.000000  0.030395      2.000000
 -0.030395  0.030395  0.000000      2.000000
 -0.030395  0.000000  0.030395      2.000000
  0.000000 -0.030395  0.030395      2.000000
  0.060790  0.030395  0.000000      2.000000
  0.000000  0.060790  0.030395      2.000000
  0.030395  0.000000  0.060790      2.000000
 -0.030395  0.060790  0.000000      2.000000
 -0.060790  0.000000  0.030395      2.000000
  0.000000  0.030395  0.060790      2.000000
  0.000000 -0.060790  0.030395      2.000000
 -0.030395  0.000000  0.060790      2.000000
  0.060790  0.000000  0.030395      2.000000
  0.000000 -0.030395  0.060790      2.000000
  0.060790 -0.030395  0.000000      2.000000
  0.030395  0.060790  0.000000      2.000000
  0.060790  0.060790  0.000000      2.000000
  0.000000  0.060790  0.060790      2.000000
  0.060790  0.000000  0.060790      2.000000
 -0.060790  0.060790  0.000000      2.000000
 -0.060790  0.000000  0.060790      2.000000
  0.000000 -0.060790  0.060790      2.000000
  0.030395  0.030395  0.030395      2.000000
 -0.030395  0.030395  0.030395      2.000000
 -0.030395 -0.030395  0.030395      2.000000
  0.030395 -0.030395  0.030395      2.000000
  0.060790  0.030395  0.030395      2.000000
  0.030395  0.060790  0.030395      2.000000
  0.030395  0.030395  0.060790      2.000000
 -0.030395  0.060790  0.030395      2.000000
 -0.060790  0.030395  0.030395      2.000000
 -0.030395  0.030395  0.060790      2.000000
 -0.060790 -0.030395  0.030395      2.000000
 -0.030395 -0.060790  0.030395      2.000000
 -0.030395 -0.030395  0.060790      2.000000
  0.030395 -0.060790  0.030395      2.000000
  0.060790 -0.030395  0.030395      2.000000
  0.030395 -0.030395  0.060790      2.000000
  0.060790  0.060790  0.030395      2.000000
  0.030395  0.060790  0.060790      2.000000
  0.060790  0.030395  0.060790      2.000000
 -0.060790  0.060790  0.030395      2.000000
 -0.060790  0.030395  0.060790      2.000000
 -0.030395  0.060790  0.060790      2.000000
 -0.060790 -0.060790  0.030395      2.000000
 -0.030395 -0.060790  0.060790      2.000000
 -0.060790 -0.030395  0.060790      2.000000
  0.060790 -0.060790  0.030395      2.000000
  0.060790 -0.030395  0.060790      2.000000
  0.030395 -0.060790  0.060790      2.000000
  0.060790  0.060790  0.060790      2.000000
 -0.060790  0.060790  0.060790      2.000000
 -0.060790 -0.060790  0.060790      2.000000
  0.060790 -0.060790  0.060790      2.000000
 


--------------------------------------------------------------------------------------------------------




 Dimension of arrays:
   k-points           NKPTS =     63   k-points in BZ     NKDIM =     63   number of bands    NBANDS=    120
   number of dos      NEDOS =    301   number of ions     NIONS =     16
   non local maximal  LDIM  =      6   non local SUM 2l+1 LMDIM =     18
   total plane-waves  NPLWV =  46656
   max r-space proj   IRMAX =      1   max aug-charges    IRDMAX=   9546
   dimension x,y,z NGX =    36 NGY =   36 NGZ =   36
   dimension x,y,z NGXF=    72 NGYF=   72 NGZF=   72
   support grid    NGXF=    72 NGYF=   72 NGZF=   72
   ions per type =               5   4   6   1
   NGX,Y,Z   is equivalent  to a cutoff of   9.10,  9.10,  9.10 a.u.
   NGXF,Y,Z  is equivalent  to a cutoff of  18.19, 18.19, 18.19 a.u.

 SYSTEM =  unknown system                          
 POSCAR =  Nb-Mo-Ta-W alloy                        

 Startparameter for this run:
   NWRITE =      2    write-flag & timer
   PREC   = accura    normal or accurate (medium, high low for compatibility)
   ISTART =      0    job   : 0-new  1-cont  2-samecut
   ICHARG =      2    charge: 1-file 2-atom 10-const
   ISPIN  =      1    spin polarized calculation?
   LNONCOLLINEAR =      F non collinear calculations
   LSORBIT =      F    spin-orbit coupling
   INIWAV =      1    electr: 0-lowe 1-rand  2-diag
   LASPH  =      F    aspherical Exc in radial PAW
 Electronic Relaxation 1
   ENCUT  =  250.0 eV  18.37 Ry    4.29 a.u.   8.48  8.48  8.48*2*pi/ulx,y,z
   ENINI  =  250.0     initial cutoff
   ENAUG  =  455.7 eV  augmentation charge cutoff
   NELM   =     80;   NELMIN=  2; NELMDL= -5     # of ELM steps 
   EDIFF  = 0.1E-07   stopping-criterion for ELM
   LREAL  =      F    real-space projection
   NLSPLINE    = F    spline interpolate recip. space projectors
   LCOMPAT=      F    compatible to vasp.4.4
   GGA_COMPAT  = T    GGA compatible to vasp.4.4-vasp.4.6
   LMAXPAW     = -100 max onsite density
   LMAXMIX     =    2 max onsite mixed and CHGCAR
   VOSKOWN=      0    Vosko Wilk Nusair interpolation
   ROPT   =    0.00000   0.00000   0.00000   0.00000
 Ionic relaxation
   EDIFFG = -.1E-01   stopping-criterion for IOM
   NSW    =      0    number of steps for IOM
   NBLOCK =      1;   KBLOCK =      1    inner block; outer block 
   IBRION =     -1    ionic relax: 0-MD 1-quasi-New 2-CG
   NFREE  =      0    steps in history (QN), initial steepest desc. (CG)
   ISIF   =      2    stress and relaxation
   IWAVPR =     10    prediction:  0-non 1-charg 2-wave 3-comb
   ISYM   =      2    0-nonsym 1-usesym 2-fastsym
   LCORR  =      T    Harris-Foulkes like correction to forces

   POTIM  = 0.5000    time-step for ionic-motion
   TEIN   =    0.0    initial temperature
   TEBEG  =    0.0;   TEEND  =   0.0 temperature during run
   SMASS  =  -3.00    Nose mass-parameter (am)
   estimated Nose-frequenzy (Omega)   =  0.10E-29 period in steps = 0.13E+47 mass=  -0.989E-27a.u.
   SCALEE = 1.0000    scale energy and forces
   NPACO  =    256;   APACO  = 10.0  distance and # of slots for P.C.
   PSTRESS=    0.0 pullay stress

  Mass of Ions in am
   POMASS =  92.91 95.94180.95183.85
  Ionic Valenz
   ZVAL   =  13.00 14.00 11.00 14.00
  Atomic Wigner-Seitz radii
   RWIGS  =  -1.00 -1.00 -1.00 -1.00
  virtual crystal weights 
   VCA    =   1.00  1.00  1.00  1.00
   NELECT =     201.0000    total number of electrons
   NUPDOWN=      -1.0000    fix difference up-down

 DOS related values:
   EMIN   =  10.00;   EMAX   =-10.00  energy-range for DOS
   EFERMI =   0.00
   ISMEAR =     0;   SIGMA  =   0.02  broadening in eV -4-tet -1-fermi 0-gaus

 Electronic relaxation 2 (details)
   IALGO  =     38    algorithm
   LDIAG  =      T    sub-space diagonalisation (order eigenvalues)
   LSUBROT=      F    optimize rotation matrix (better conditioning)
   TURBO    =      0    0=normal 1=particle mesh
   IRESTART =      0    0=no restart 2=restart with 2 vectors
   NREBOOT  =      0    no. of reboots
   NMIN     =      0    reboot dimension
   EREF     =   0.00    reference energy to select bands
   IMIX   =      4    mixing-type and parameters
     AMIX     =   0.40;   BMIX     =  1.00
     AMIX_MAG =   1.60;   BMIX_MAG =  1.00
     AMIN     =   0.10
     WC   =   100.;   INIMIX=   1;  MIXPRE=   1;  MAXMIX= -45

 Intra band minimization:
   WEIMIN = 0.0000     energy-eigenvalue tresh-hold
   EBREAK =  0.21E-10  absolut break condition
   DEPER  =   0.30     relativ break condition  

   TIME   =   0.40     timestep for ELM

  volume/ion in A,a.u.               =      17.81       120.16
  Fermi-wavevector in a.u.,A,eV,Ry     =   1.457407  2.754101 28.899267  2.124036
  Thomas-Fermi vector in A             =   2.574212
 
 Write flags
   LWAVE        =      F    write WAVECAR
   LDOWNSAMPLE  =      F    k-point downsampling of WAVECAR
   LCHARG       =      F    write CHGCAR
   LVTOT        =      F    write LOCPOT, total local potential
   LVHAR        =      F    write LOCPOT, Hartree potential only
   LELF         =      F    write electronic localiz. function (ELF)
   LORBIT       =      0    0 simple, 1 ext, 2 COOP (PROOUT), +10 PAW based schemes


 Dipole corrections
   LMONO  =      F    monopole corrections only (constant potential shift)
   LDIPOL =      F    correct potential (dipole corrections)
   IDIPOL =      0    1-x, 2-y, 3-z, 4-all directions 
   EPSILON=  1.0000000 bulk dielectric constant

 Core level calculations are selected ICORELEVEL =  1
 Exchange correlation treatment:
   GGA     =    PE    GGA type
   LEXCH   =     8    internal setting for exchange type
   LIBXC   =     F    Libxc                    
   VOSKOWN =     0    Vosko Wilk Nusair interpolation
   LHFCALC =     F    Hartree Fock is set to
   LHFONE  =     F    Hartree Fock one center treatment
   AEXX    =    0.0000 exact exchange contribution

 Linear response parameters
   LEPSILON=     F    determine dielectric tensor
   LRPA    =     F    only Hartree local field effects (RPA)
   LNABLA  =     F    use nabla operator in PAW spheres
   LVEL    =     F    velocity operator in full k-point grid
   CSHIFT  =0.1000    complex shift for real part using Kramers Kronig
   OMEGAMAX=  -1.0    maximum frequency
   DEG_THRESHOLD= 0.2000000E-02 threshold for treating states as degnerate
   RTIME   =   -0.100 relaxation time in fs
  (WPLASMAI=    0.000 imaginary part of plasma frequency in eV, 0.658/RTIME)
   DFIELD  = 0.0000000 0.0000000 0.0000000 field for delta impulse in time
 
  Optional k-point grid parameters
   LKPOINTS_OPT  =     F    use optional k-point grid
   KPOINTS_OPT_MODE=     1    mode for optional k-point grid
 
 Orbital magnetization related:
   ORBITALMAG=     F  switch on orbital magnetization
   LCHIMAG   =     F  perturbation theory with respect to B field
   DQ        =  0.001000  dq finite difference perturbation B field
   LLRAUG    =     F  two centre corrections for induced B field



--------------------------------------------------------------------------------------------------------


 Static calculation
 charge density and potential will be updated during run
 non-spin polarized calculation
 Variant of blocked Davidson
 Davidson routine will perform the subspace rotation
 perform sub-space diagonalisation
    after iterative eigenvector-optimisation
 modified Broyden-mixing scheme, WC =      100.0
 initial mixing is a Kerker type mixing with AMIX =  0.4000 and BMIX =      1.0000
 Hartree-type preconditioning will be used
 using additional bands           19
 reciprocal scheme for non local part
 use partial core corrections
 calculate Harris-corrections to forces 
   (improved forces if not selfconsistent)
 use gradient corrections 
 use of overlap-Matrix (Vanderbilt PP)
 Gauss-broadening in eV      SIGMA  =   0.02


--------------------------------------------------------------------------------------------------------


  energy-cutoff  :      250.00
  volume of cell :      284.89
      direct lattice vectors                 reciprocal lattice vectors
     6.580000000  0.000000000  0.000000000     0.151975684  0.000000000  0.000000000
     0.000000000  6.580000000  0.000000000     0.000000000  0.151975684  0.000000000
     0.000000000  0.000000000  6.580000000     0.000000000  0.000000000  0.151975684

  length of vectors
     6.580000000  6.580000000  6.580000000     0.151975684  0.151975684  0.151975684


 
 k-points in units of 2pi/SCALE and weight: K-Spacing Value to Generate K-Mesh: 0.03
   0.00000000  0.00000000  0.00000000       0.008
   0.03039514  0.00000000  0.00000000       0.016
   0.00000000  0.03039514  0.00000000       0.016
   0.00000000  0.00000000  0.03039514       0.016
   0.06079027  0.00000000  0.00000000       0.016
   0.00000000  0.06079027  0.00000000       0.016
   0.00000000  0.00000000  0.06079027       0.016
   0.03039514  0.03039514  0.00000000       0.016
   0.00000000  0.03039514  0.03039514       0.016
   0.03039514  0.00000000  0.03039514       0.016
  -0.03039514  0.03039514  0.00000000       0.016
  -0.03039514  0.00000000  0.03039514       0.016
   0.00000000 -0.03039514  0.03039514       0.016
   0.06079027  0.03039514  0.00000000       0.016
   0.00000000  0.06079027  0.03039514       0.016
   0.03039514  0.00000000  0.06079027       0.016
  -0.03039514  0.06079027  0.00000000       0.016
  -0.06079027  0.00000000  0.03039514       0.016
   0.00000000  0.03039514  0.06079027       0.016
   0.00000000 -0.06079027  0.03039514       0.016
  -0.03039514  0.00000000  0.06079027       0.016
   0.06079027  0.00000000  0.03039514       0.016
   0.00000000 -0.03039514  0.06079027       0.016
   0.06079027 -0.03039514  0.00000000       0.016
   0.03039514  0.06079027  0.00000000       0.016
   0.06079027  0.06079027  0.00000000       0.016
   0.00000000  0.06079027  0.06079027       0.016
   0.06079027  0.00000000  0.06079027       0.016
  -0.06079027  0.06079027  0.00000000       0.016
  -0.06079027  0.00000000  0.06079027       0.016
   0.00000000 -0.06079027  0.06079027       0.016
   0.03039514  0.03039514  0.03039514       0.016
  -0.03039514  0.03039514  0.03039514       0.016
  -0.03039514 -0.03039514  0.03039514       0.016
   0.03039514 -0.03039514  0.03039514       0.016
   0.06079027  0.03039514  0.03039514       0.016
   0.03039514  0.06079027  0.03039514       0.016
   0.03039514  0.03039514  0.06079027       0.016
  -0.03039514  0.06079027  0.03039514       0.016
  -0.06079027  0.03039514  0.03039514       0.016
  -0.03039514  0.03039514  0.06079027       0.016
  -0.06079027 -0.03039514  0.03039514       0.016
  -0.03039514 -0.06079027  0.03039514       0.016
  -0.03039514 -0.03039514  0.06079027       0.016
   0.03039514 -0.06079027  0.03039514       0.016
   0.06079027 -0.03039514  0.03039514       0.016
   0.03039514 -0.03039514  0.06079027       0.016
   0.06079027  0.06079027  0.03039514       0.016
   0.03039514  0.06079027  0.06079027       0.016
   0.06079027  0.03039514  0.06079027       0.016
  -0.06079027  0.06079027  0.03039514       0.016
  -0.06079027  0.03039514  0.06079027       0.016
  -0.03039514  0.06079027  0.06079027       0.016
  -0.06079027 -0.06079027  0.03039514       0.016
  -0.03039514 -0.06079027  0.06079027       0.016
  -0.06079027 -0.03039514  0.06079027       0.016
   0.06079027 -0.06079027  0.03039514       0.016
   0.06079027 -0.03039514  0.06079027       0.016
   0.03039514 -0.06079027  0.06079027       0.016
   0.06079027  0.06079027  0.06079027       0.016
  -0.06079027  0.06079027  0.06079027       0.016
  -0.06079027 -0.06079027  0.06079027       0.016
   0.06079027 -0.06079027  0.06079027       0.016
 
 k-points in reciprocal lattice and weights: K-Spacing Value to Generate K-Mesh: 0.03
   0.00000000  0.00000000  0.00000000       0.008
   0.20000000  0.00000000  0.00000000       0.016
   0.00000000  0.20000000  0.00000000       0.016
   0.00000000  0.00000000  0.20000000       0.016
   0.40000000  0.00000000  0.00000000       0.016
   0.00000000  0.40000000  0.00000000       0.016
   0.00000000  0.00000000  0.40000000       0.016
   0.20000000  0.20000000  0.00000000       0.016
   0.00000000  0.20000000  0.20000000       0.016
   0.20000000  0.00000000  0.20000000       0.016
  -0.20000000  0.20000000  0.00000000       0.016
  -0.20000000  0.00000000  0.20000000       0.016
   0.00000000 -0.20000000  0.20000000       0.016
   0.40000000  0.20000000  0.00000000       0.016
   0.00000000  0.40000000  0.20000000       0.016
   0.20000000  0.00000000  0.40000000       0.016
  -0.20000000  0.40000000  0.00000000       0.016
  -0.40000000  0.00000000  0.20000000       0.016
   0.00000000  0.20000000  0.40000000       0.016
   0.00000000 -0.40000000  0.20000000       0.016
  -0.20000000  0.00000000  0.40000000       0.016
   0.40000000  0.00000000  0.20000000       0.016
   0.00000000 -0.20000000  0.40000000       0.016
   0.40000000 -0.20000000  0.00000000       0.016
   0.20000000  0.40000000  0.00000000       0.016
   0.40000000  0.40000000  0.00000000       0.016
   0.00000000  0.40000000  0.40000000       0.016
   0.40000000  0.00000000  0.40000000       0.016
  -0.40000000  0.40000000  0.00000000       0.016
  -0.40000000  0.00000000  0.40000000       0.016
   0.00000000 -0.40000000  0.40000000       0.016
   0.20000000  0.20000000  0.20000000       0.016
  -0.20000000  0.20000000  0.20000000       0.016
  -0.20000000 -0.20000000  0.20000000       0.016
   0.20000000 -0.20000000  0.20000000       0.016
   0.40000000  0.20000000  0.20000000       0.016
   0.20000000  0.40000000  0.20000000       0.016
   0.20000000  0.20000000  0.40000000       0.016
  -0.20000000  0.40000000  0.20000000       0.016
  -0.40000000  0.20000000  0.20000000       0.016
  -0.20000000  0.20000000  0.40000000       0.016
  -0.40000000 -0.20000000  0.20000000       0.016
  -0.20000000 -0.40000000  0.20000000       0.016
  -0.20000000 -0.20000000  0.40000000       0.016
   0.20000000 -0.40000000  0.20000000       0.016
   0.40000000 -0.20000000  0.20000000       0.016
   0.20000000 -0.20000000  0.40000000       0.016
   0.40000000  0.40000000  0.20000000       0.016
   0.20000000  0.40000000  0.40000000       0.016
   0.40000000  0.20000000  0.40000000       0.016
  -0.40000000  0.40000000  0.20000000       0.016
  -0.40000000  0.20000000  0.40000000       0.016
  -0.20000000  0.40000000  0.40000000       0.016
  -0.40000000 -0.40000000  0.20000000       0.016
  -0.20000000 -0.40000000  0.40000000       0.016
  -0.40000000 -0.20000000  0.40000000       0.016
   0.40000000 -0.40000000  0.20000000       0.016
   0.40000000 -0.20000000  0.40000000       0.016
   0.20000000 -0.40000000  0.40000000       0.016
   0.40000000  0.40000000  0.40000000       0.016
  -0.40000000  0.40000000  0.40000000       0.016
  -0.40000000 -0.40000000  0.40000000       0.016
   0.40000000 -0.40000000  0.40000000       0.016
 
 position of ions in fractional coordinates (direct lattice) 
   0.00000000  0.50000000  0.00000000
   0.00000000  0.00000000  0.00000000
   0.75000000  0.25000000  0.75000000
   0.25000000  0.25000000  0.25000000
   0.25000000  0.75000000  0.25000000
   0.50000000  0.00000000  0.00000000
   0.25000000  0.75000000  0.75000000
   0.25000000  0.25000000  0.75000000
   0.00000000  0.00000000  0.50000000
   0.50000000  0.50000000  0.50000000
   0.75000000  0.75000000  0.25000000
   0.50000000  0.50000000  0.00000000
   0.00000000  0.50000000  0.50000000
   0.50000000  0.00000000  0.50000000
   0.75000000  0.75000000  0.75000000
   0.75000000  0.25000000  0.25000000
 
 position of ions in cartesian coordinates  (Angst):
   0.00000000  3.29000000  0.00000000
   0.00000000  0.00000000  0.00000000
   4.93500000  1.64500000  4.93500000
   1.64500000  1.64500000  1.64500000
   1.64500000  4.93500000  1.64500000
   3.29000000  0.00000000  0.00000000
   1.64500000  4.93500000  4.93500000
   1.64500000  1.64500000  4.93500000
   0.00000000  0.00000000  3.29000000
   3.29000000  3.29000000  3.29000000
   4.93500000  4.93500000  1.64500000
   3.29000000  3.29000000  0.00000000
   0.00000000  3.29000000  3.29000000
   3.29000000  0.00000000  3.29000000
   4.93500000  4.93500000  4.93500000
   4.93500000  1.64500000  1.64500000
 


--------------------------------------------------------------------------------------------------------


 k-point   1 :   0.0000 0.0000 0.0000  plane waves:    2517
 k-point   2 :   0.2000 0.0000 0.0000  plane waves:    2545
 k-point   3 :   0.0000 0.2000 0.0000  plane waves:    2545
 k-point   4 :   0.0000 0.0000 0.2000  plane waves:    2545
 k-point   5 :   0.4000 0.0000 0.0000  plane waves:    2569
 k-point   6 :   0.0000 0.4000 0.0000  plane waves:    2569
 k-point   7 :   0.0000 0.0000 0.4000  plane waves:    2569
 k-point   8 :   0.2000 0.2000 0.0000  plane waves:    2562
 k-point   9 :   0.0000 0.2000 0.2000  plane waves:    2562
 k-point  10 :   0.2000 0.0000 0.2000  plane waves:    2562
 k-point  11 :  -0.2000 0.2000 0.0000  plane waves:    2562
 k-point  12 :  -0.2000 0.0000 0.2000  plane waves:    2562
 k-point  13 :   0.0000-0.2000 0.2000  plane waves:    2562
 k-point  14 :   0.4000 0.2000 0.0000  plane waves:    2566
 k-point  15 :   0.0000 0.4000 0.2000  plane waves:    2566
 k-point  16 :   0.2000 0.0000 0.4000  plane waves:    2566
 k-point  17 :  -0.2000 0.4000 0.0000  plane waves:    2566
 k-point  18 :  -0.4000 0.0000 0.2000  plane waves:    2566
 k-point  19 :   0.0000 0.2000 0.4000  plane waves:    2566
 k-point  20 :   0.0000-0.4000 0.2000  plane waves:    2566
 k-point  21 :  -0.2000 0.0000 0.4000  plane waves:    2566
 k-point  22 :   0.4000 0.0000 0.2000  plane waves:    2566
 k-point  23 :   0.0000-0.2000 0.4000  plane waves:    2566
 k-point  24 :   0.4000-0.2000 0.0000  plane waves:    2566
 k-point  25 :   0.2000 0.4000 0.0000  plane waves:    2566
 k-point  26 :   0.4000 0.4000 0.0000  plane waves:    2570
 k-point  27 :   0.0000 0.4000 0.4000  plane waves:    2570
 k-point  28 :   0.4000 0.0000 0.4000  plane waves:    2570
 k-point  29 :  -0.4000 0.4000 0.0000  plane waves:    2570
 k-point  30 :  -0.4000 0.0000 0.4000  plane waves:    2570
 k-point  31 :   0.0000-0.4000 0.4000  plane waves:    2570
 k-point  32 :   0.2000 0.2000 0.2000  plane waves:    2572
 k-point  33 :  -0.2000 0.2000 0.2000  plane waves:    2572
 k-point  34 :  -0.2000-0.2000 0.2000  plane waves:    2572
 k-point  35 :   0.2000-0.2000 0.2000  plane waves:    2572
 k-point  36 :   0.4000 0.2000 0.2000  plane waves:    2546
 k-point  37 :   0.2000 0.4000 0.2000  plane waves:    2546
 k-point  38 :   0.2000 0.2000 0.4000  plane waves:    2546
 k-point  39 :  -0.2000 0.4000 0.2000  plane waves:    2546
 k-point  40 :  -0.4000 0.2000 0.2000  plane waves:    2546
 k-point  41 :  -0.2000 0.2000 0.4000  plane waves:    2546
 k-point  42 :  -0.4000-0.2000 0.2000  plane waves:    2546
 k-point  43 :  -0.2000-0.4000 0.2000  plane waves:    2546
 k-point  44 :  -0.2000-0.2000 0.4000  plane waves:    2546
 k-point  45 :   0.2000-0.4000 0.2000  plane waves:    2546
 k-point  46 :   0.4000-0.2000 0.2000  plane waves:    2546
 k-point  47 :   0.2000-0.2000 0.4000  plane waves:    2546
 k-point  48 :   0.4000 0.4000 0.2000  plane waves:    2549
 k-point  49 :   0.2000 0.4000 0.4000  plane waves:    2549
 k-point  50 :   0.4000 0.2000 0.4000  plane waves:    2549
 k-point  51 :  -0.4000 0.4000 0.2000  plane waves:    2549
 k-point  52 :  -0.4000 0.2000 0.4000  plane waves:    2549
 k-point  53 :  -0.2000 0.4000 0.4000  plane waves:    2549
 k-point  54 :  -0.4000-0.4000 0.2000  plane waves:    2549
 k-point  55 :  -0.2000-0.4000 0.4000  plane waves:    2549
 k-point  56 :  -0.4000-0.2000 0.4000  plane waves:    2549
 k-point  57 :   0.4000-0.4000 0.2000  plane waves:    2549
 k-point  58 :   0.4000-0.2000 0.4000  plane waves:    2549
 k-point  59 :   0.2000-0.4000 0.4000  plane waves:    2549
 k-point  60 :   0.4000 0.4000 0.4000  plane waves:    2533
 k-point  61 :  -0.4000 0.4000 0.4000  plane waves:    2533
 k-point  62 :  -0.4000-0.4000 0.4000  plane waves:    2533
 k-point  63 :   0.4000-0.4000 0.4000  plane waves:    2533

 maximum and minimum number of plane-waves per node :       235      194

 maximum number of plane-waves:      2572
 maximum index in each direction: 
   IXMAX=    8   IYMAX=    8   IZMAX=    8
   IXMIN=   -8   IYMIN=   -8   IZMIN=   -8


 parallel 3D FFT for wavefunctions:
    minimum data exchange during FFTs selected (reduces bandwidth)
 parallel 3D FFT for charge:
    minimum data exchange during FFTs selected (reduces bandwidth)


 total amount of memory used by VASP MPI-rank0    47721. kBytes
=======================================================================

   base      :      30000. kBytes
   nonl-proj :       8332. kBytes
   fftplans  :        456. kBytes
   grid      :        919. kBytes
   one-center:         31. kBytes
   wavefun   :       7983. kBytes
 
     INWAV:  cpu time      0.0000: real time      0.0002
 Broyden mixing: mesh for mixing (old mesh)
   NGX = 17   NGY = 17   NGZ = 17
  (NGX  = 72   NGY  = 72   NGZ  = 72)
  gives a total of   4913 points

 initial charge density was supplied:
 charge density of overlapping atoms calculated
 number of electron     201.0000000 magnetization 
 keeping initial charge density in first step


--------------------------------------------------------------------------------------------------------


 Maximum index for augmentation-charges          517 (set IRDMAX)


--------------------------------------------------------------------------------------------------------


 First call to EWALD:  gamma=   0.269
 Maximum number of real-space cells 3x 3x 3
 Maximum number of reciprocal cells 3x 3x 3

    FEWALD:  cpu time      0.0011: real time      0.0011


--------------------------------------- Iteration      1(   1)  ---------------------------------------


    POTLOK:  cpu time      0.2177: real time      0.4149
    SETDIJ:  cpu time      0.1166: real time      0.1171
     EDDAV:  cpu time     27.3318: real time     30.8465
       DOS:  cpu time      0.3857: real time      0.3870
    --------------------------------------------
      LOOP:  cpu time     28.0518: real time     31.7656

 eigenvalue-minimisations  : 15432
 total energy-change (2. order) : 0.1755242E+04  (-0.7886473E+04)
 number of electron     201.0000000 magnetization 
 augmentation part      201.0000000 magnetization 

 Free energy of the ion-electron system (eV)
  ---------------------------------------------------
  alpha Z        PSCENC =      1778.92150509
  Ewald energy   TEWEN  =    -20175.65862779
  -Hartree energ DENC   =     -3692.46342001
  -exchange      EXHF   =         0.00000000
  -V(xc)+E(xc)   XCENC  =       748.74872529
  PAW double counting   =     18549.41682594   -18258.58012337
  entropy T*S    EENTRO =        -0.00097358
  eigenvalues    EBANDS =      -567.19997225
  atomic energy  EATOM  =     23372.05850587
  Solvation  Ediel_sol  =         0.00000000
  ---------------------------------------------------
  free energy    TOTEN  =      1755.24244519 eV

  energy without entropy =     1755.24341877  energy(sigma->0) =     1755.24293198


--------------------------------------------------------------------------------------------------------




--------------------------------------- Iteration      1(   2)  ---------------------------------------


     EDDAV:  cpu time      7.3466: real time      7.3752
       DOS:  cpu time      0.2588: real time      0.2596
    --------------------------------------------
      LOOP:  cpu time      7.6054: real time      7.6348

 eigenvalue-minimisations  : 15904
 total energy-change (2. order) :-0.1786740E+04  (-0.1732401E+04)
 number of electron     201.0000000 magnetization 
 augmentation part      201.0000000 magnetization 

 Free energy of the ion-electron system (eV)
  ---------------------------------------------------
  alpha Z        PSCENC =      1778.92150509
  Ewald energy   TEWEN  =    -20175.65862779
  -Hartree energ DENC   =     -3692.46342001
  -exchange      EXHF   =         0.00000000
  -V(xc)+E(xc)   XCENC  =       748.74872529
  PAW double counting   =     18549.41682594   -18258.58012337
  entropy T*S    EENTRO =        -0.00163010
  eigenvalues    EBANDS =     -2353.93927457
  atomic energy  EATOM  =     23372.05850587
  Solvation  Ediel_sol  =         0.00000000
  ---------------------------------------------------
  free energy    TOTEN  =       -31.49751365 eV

  energy without entropy =      -31.49588355  energy(sigma->0) =      -31.49669860


--------------------------------------------------------------------------------------------------------




--------------------------------------- Iteration      1(   3)  ---------------------------------------


     EDDAV:  cpu time      7.7640: real time      7.7937
       DOS:  cpu time      0.1347: real time      0.1351
    --------------------------------------------
      LOOP:  cpu time      7.8987: real time      7.9288

 eigenvalue-minimisations  : 24216
 total energy-change (2. order) :-0.1465883E+03  (-0.1392316E+03)
 number of electron     201.0000000 magnetization 
 augmentation part      201.0000000 magnetization 

 Free energy of the ion-electron system (eV)
  ---------------------------------------------------
  alpha Z        PSCENC =      1778.92150509
  Ewald energy   TEWEN  =    -20175.65862779
  -Hartree energ DENC   =     -3692.46342001
  -exchange      EXHF   =         0.00000000
  -V(xc)+E(xc)   XCENC  =       748.74872529
  PAW double counting   =     18549.41682594   -18258.58012337
  entropy T*S    EENTRO =        -0.00332116
  eigenvalues    EBANDS =     -2500.52592473
  atomic energy  EATOM  =     23372.05850587
  Solvation  Ediel_sol  =         0.00000000
  ---------------------------------------------------
  free energy    TOTEN  =      -178.08585488 eV

  energy without entropy =     -178.08253372  energy(sigma->0) =     -178.08419430


--------------------------------------------------------------------------------------------------------




--------------------------------------- Iteration      1(   4)  ---------------------------------------


     EDDAV:  cpu time     13.7408: real time     14.0184
       DOS:  cpu time      0.0049: real time      0.0049
    --------------------------------------------
      LOOP:  cpu time     13.7457: real time     14.0233

 eigenvalue-minimisations  : 24184
 total energy-change (2. order) :-0.9483694E+01  (-0.9206290E+01)
 number of electron     201.0000000 magnetization 
 augmentation part      201.0000000 magnetization 

 Free energy of the ion-electron system (eV)
  ---------------------------------------------------
  alpha Z        PSCENC =      1778.92150509
  Ewald energy   TEWEN  =    -20175.65862779
  -Hartree energ DENC   =     -3692.46342001
  -exchange      EXHF   =         0.00000000
  -V(xc)+E(xc)   XCENC  =       748.74872529
  PAW double counting   =     18549.41682594   -18258.58012337
  entropy T*S    EENTRO =        -0.00303808
  eigenvalues    EBANDS =     -2510.00990223
  atomic energy  EATOM  =     23372.05850587
  Solvation  Ediel_sol  =         0.00000000
  ---------------------------------------------------
  free energy    TOTEN  =      -187.56954930 eV

  energy without entropy =     -187.56651121  energy(sigma->0) =     -187.56803026


--------------------------------------------------------------------------------------------------------




--------------------------------------- Iteration      1(   5)  ---------------------------------------


     EDDAV:  cpu time     13.3322: real time     13.5614
       DOS:  cpu time      0.0417: real time      0.0419
    CHARGE:  cpu time      0.1317: real time      0.1322
    MIXING:  cpu time      0.1414: real time      0.1419
    --------------------------------------------
      LOOP:  cpu time     13.6471: real time     13.8774

 eigenvalue-minimisations  : 21960
 total energy-change (2. order) :-0.5032411E+00  (-0.4987628E+00)
 number of electron     200.9999796 magnetization 
 augmentation part       38.6678804 magnetization 

 Broyden mixing:
  rms(total) = 0.50553E+01    rms(broyden)= 0.50543E+01
  rms(prec ) = 0.55516E+01
  weight for this iteration     100.00

 Free energy of the ion-electron system (eV)
  ---------------------------------------------------
  alpha Z        PSCENC =      1778.92150509
  Ewald energy   TEWEN  =    -20175.65862779
  -Hartree energ DENC   =     -3692.46342001
  -exchange      EXHF   =         0.00000000
  -V(xc)+E(xc)   XCENC  =       748.74872529
  PAW double counting   =     18549.41682594   -18258.58012337
  entropy T*S    EENTRO =        -0.00315135
  eigenvalues    EBANDS =     -2510.51303007
  atomic energy  EATOM  =     23372.05850587
  Solvation  Ediel_sol  =         0.00000000
  ---------------------------------------------------
  free energy    TOTEN  =      -188.07279040 eV

  energy without entropy =     -188.06963906  energy(sigma->0) =     -188.07121473


--------------------------------------------------------------------------------------------------------




--------------------------------------- Iteration      1(   6)  ---------------------------------------


    POTLOK:  cpu time      0.3991: real time      0.4010
    SETDIJ:  cpu time      0.1504: real time      0.1510
     EDDAV:  cpu time      5.4682: real time      5.5925
       DOS:  cpu time      0.0047: real time      0.0047
    CHARGE:  cpu time      0.0801: real time      0.0804
    MIXING:  cpu time      0.0003: real time      0.0003
    --------------------------------------------
      LOOP:  cpu time      6.1028: real time      6.2300

 eigenvalue-minimisations  : 17712
 total energy-change (2. order) : 0.6620659E+01  (-0.1968940E+01)
 number of electron     200.9999782 magnetization 
 augmentation part       40.3401216 magnetization 

 Broyden mixing:
  rms(total) = 0.20114E+01    rms(broyden)= 0.20111E+01
  rms(prec ) = 0.25358E+01
  weight for this iteration     100.00

 eigenvalues of (default mixing * dielectric matrix)
  average eigenvalue GAMMA=   1.4386
  1.4386

 Free energy of the ion-electron system (eV)
  ---------------------------------------------------
  alpha Z        PSCENC =      1778.92150509
  Ewald energy   TEWEN  =    -20175.65862779
  -Hartree energ DENC   =     -3489.89953380
  -exchange      EXHF   =         0.00000000
  -V(xc)+E(xc)   XCENC  =       738.65715964
  PAW double counting   =     22163.14334529   -21894.24665997
  entropy T*S    EENTRO =        -0.00373810
  eigenvalues    EBANDS =     -2674.42408742
  atomic energy  EATOM  =     23372.05850587
  Solvation  Ediel_sol  =         0.00000000
  ---------------------------------------------------
  free energy    TOTEN  =      -181.45213118 eV

  energy without entropy =     -181.44839309  energy(sigma->0) =     -181.45026213


--------------------------------------------------------------------------------------------------------




--------------------------------------- Iteration      1(   7)  ---------------------------------------


    POTLOK:  cpu time      0.0044: real time      0.0045
    SETDIJ:  cpu time      0.0017: real time      0.0017
     EDDAV:  cpu time      3.7706: real time      3.7867
       DOS:  cpu time      0.0046: real time      0.0046
    CHARGE:  cpu time      0.0775: real time      0.0778
    MIXING:  cpu time      0.0003: real time      0.0003
    --------------------------------------------
      LOOP:  cpu time      3.8591: real time      3.8756

 eigenvalue-minimisations  : 22200
 total energy-change (2. order) :-0.8585688E+00  (-0.2080226E+01)
 number of electron     200.9999794 magnetization 
 augmentation part       39.8549815 magnetization 

 Broyden mixing:
  rms(total) = 0.13437E+01    rms(broyden)= 0.13434E+01
  rms(prec ) = 0.28901E+01
  weight for this iteration     100.00

 eigenvalues of (default mixing * dielectric matrix)
  average eigenvalue GAMMA=   1.1204
  1.7127  0.5281

 Free energy of the ion-electron system (eV)
  ---------------------------------------------------
  alpha Z        PSCENC =      1778.92150509
  Ewald energy   TEWEN  =    -20175.65862779
  -Hartree energ DENC   =     -3444.11396525
  -exchange      EXHF   =         0.00000000
  -V(xc)+E(xc)   XCENC  =       735.70284514
  PAW double counting   =     24452.88786444   -24189.75321379
  entropy T*S    EENTRO =        -0.00513956
  eigenvalues    EBANDS =     -2712.35047409
  atomic energy  EATOM  =     23372.05850587
  Solvation  Ediel_sol  =         0.00000000
  ---------------------------------------------------
  free energy    TOTEN  =      -182.31069994 eV

  energy without entropy =     -182.30556038  energy(sigma->0) =     -182.30813016


--------------------------------------------------------------------------------------------------------




--------------------------------------- Iteration      1(   8)  ---------------------------------------


    POTLOK:  cpu time      0.0044: real time      0.0045
    SETDIJ:  cpu time      0.0017: real time      0.0017
     EDDAV:  cpu time      4.8847: real time      4.9042
       DOS:  cpu time      0.0045: real time      0.0046
    CHARGE:  cpu time      0.0806: real time      0.0809
    MIXING:  cpu time      0.0003: real time      0.0003
    --------------------------------------------
      LOOP:  cpu time      4.9762: real time      4.9961

 eigenvalue-minimisations  : 19160
 total energy-change (2. order) : 0.2972543E+01  (-0.1080733E+01)
 number of electron     200.9999787 magnetization 
 augmentation part       40.4856026 magnetization 

 Broyden mixing:
  rms(total) = 0.39521E+00    rms(broyden)= 0.39448E+00
  rms(prec ) = 0.57163E+00
  weight for this iteration     100.00

 eigenvalues of (default mixing * dielectric matrix)
  average eigenvalue GAMMA=   1.1232
  1.8459  1.1126  0.4112

 Free energy of the ion-electron system (eV)
  ---------------------------------------------------
  alpha Z        PSCENC =      1778.92150509
  Ewald energy   TEWEN  =    -20175.65862779
  -Hartree energ DENC   =     -3393.48651357
  -exchange      EXHF   =         0.00000000
  -V(xc)+E(xc)   XCENC  =       733.50178603
  PAW double counting   =     25626.63215792   -25368.44862764
  entropy T*S    EENTRO =        -0.00619507
  eigenvalues    EBANDS =     -2752.85214758
  atomic energy  EATOM  =     23372.05850587
  Solvation  Ediel_sol  =         0.00000000
  ---------------------------------------------------
  free energy    TOTEN  =      -179.33815674 eV

  energy without entropy =     -179.33196167  energy(sigma->0) =     -179.33505920


--------------------------------------------------------------------------------------------------------




--------------------------------------- Iteration      1(   9)  ---------------------------------------


    POTLOK:  cpu time      0.0044: real time      0.0045
    SETDIJ:  cpu time      0.0016: real time      0.0016
     EDDAV:  cpu time      3.5414: real time      3.5562
       DOS:  cpu time      0.0044: real time      0.0044
    CHARGE:  cpu time      0.0780: real time      0.0783
    MIXING:  cpu time      0.0003: real time      0.0003
    --------------------------------------------
      LOOP:  cpu time      3.6300: real time      3.6453

 eigenvalue-minimisations  : 20736
 total energy-change (2. order) :-0.7468970E-01  (-0.1636119E+00)
 number of electron     200.9999788 magnetization 
 augmentation part       40.4975173 magnetization 

 Broyden mixing:
  rms(total) = 0.30725E+00    rms(broyden)= 0.30716E+00
  rms(prec ) = 0.48046E+00
  weight for this iteration     100.00

 eigenvalues of (default mixing * dielectric matrix)
  average eigenvalue GAMMA=   1.1540
  2.1700  1.5286  0.5363  0.3808

 Free energy of the ion-electron system (eV)
  ---------------------------------------------------
  alpha Z        PSCENC =      1778.92150509
  Ewald energy   TEWEN  =    -20175.65862779
  -Hartree energ DENC   =     -3389.49030271
  -exchange      EXHF   =         0.00000000
  -V(xc)+E(xc)   XCENC  =       733.31495012
  PAW double counting   =     26010.20739466   -25751.35999338
  entropy T*S    EENTRO =        -0.00551889
  eigenvalues    EBANDS =     -2757.40075941
  atomic energy  EATOM  =     23372.05850587
  Solvation  Ediel_sol  =         0.00000000
  ---------------------------------------------------
  free energy    TOTEN  =      -179.41284644 eV

  energy without entropy =     -179.40732755  energy(sigma->0) =     -179.41008699


--------------------------------------------------------------------------------------------------------




--------------------------------------- Iteration      1(  10)  ---------------------------------------


    POTLOK:  cpu time      0.0044: real time      0.0045
    SETDIJ:  cpu time      0.0016: real time      0.0016
     EDDAV:  cpu time      3.3880: real time      3.4025
       DOS:  cpu time      0.0042: real time      0.0042
    CHARGE:  cpu time      0.0940: real time      0.0944
    MIXING:  cpu time      0.2789: real time      0.2799
    --------------------------------------------
      LOOP:  cpu time      3.7712: real time      3.7871

 eigenvalue-minimisations  : 19472
 total energy-change (2. order) : 0.3653104E-01  (-0.3833650E-01)
 number of electron     200.9999788 magnetization 
 augmentation part       40.4598120 magnetization 

 Broyden mixing:
  rms(total) = 0.14601E+00    rms(broyden)= 0.14594E+00
  rms(prec ) = 0.24112E+00
  weight for this iteration     100.00

 eigenvalues of (default mixing * dielectric matrix)
  average eigenvalue GAMMA=   1.1658
  2.5936  1.6818  0.7824  0.3855  0.3855

 Free energy of the ion-electron system (eV)
  ---------------------------------------------------
  alpha Z        PSCENC =      1778.92150509
  Ewald energy   TEWEN  =    -20175.65862779
  -Hartree energ DENC   =     -3391.25235277
  -exchange      EXHF   =         0.00000000
  -V(xc)+E(xc)   XCENC  =       733.37405296
  PAW double counting   =     26351.18121904   -26090.48871086
  entropy T*S    EENTRO =        -0.00637199
  eigenvalues    EBANDS =     -2757.50553495
  atomic energy  EATOM  =     23372.05850587
  Solvation  Ediel_sol  =         0.00000000
  ---------------------------------------------------
  free energy    TOTEN  =      -179.37631540 eV

  energy without entropy =     -179.36994340  energy(sigma->0) =     -179.37312940


--------------------------------------------------------------------------------------------------------




--------------------------------------- Iteration      1(  11)  ---------------------------------------


    POTLOK:  cpu time      0.3150: real time      0.3164
    SETDIJ:  cpu time      0.1421: real time      0.1427
     EDDAV:  cpu time      8.6037: real time      8.6897
       DOS:  cpu time      0.0045: real time      0.0045
    CHARGE:  cpu time      0.0812: real time      0.0815
    MIXING:  cpu time      0.0003: real time      0.0003
    --------------------------------------------
      LOOP:  cpu time      9.1468: real time      9.2350

 eigenvalue-minimisations  : 19768
 total energy-change (2. order) : 0.3880223E-02  (-0.1338458E-01)
 number of electron     200.9999789 magnetization 
 augmentation part       40.4111837 magnetization 

 Broyden mixing:
  rms(total) = 0.59513E-01    rms(broyden)= 0.59436E-01
  rms(prec ) = 0.13377E+00
  weight for this iteration     100.00

 eigenvalues of (default mixing * dielectric matrix)
  average eigenvalue GAMMA=   1.0599
  2.5712  1.7006  0.8493  0.4770  0.4196  0.3420

 Free energy of the ion-electron system (eV)
  ---------------------------------------------------
  alpha Z        PSCENC =      1778.92150509
  Ewald energy   TEWEN  =    -20175.65862779
  -Hartree energ DENC   =     -3394.61109863
  -exchange      EXHF   =         0.00000000
  -V(xc)+E(xc)   XCENC  =       733.52628607
  PAW double counting   =     26516.48039682   -26254.07236765
  entropy T*S    EENTRO =        -0.00583054
  eigenvalues    EBANDS =     -2756.01120441
  atomic energy  EATOM  =     23372.05850587
  Solvation  Ediel_sol  =         0.00000000
  ---------------------------------------------------
  free energy    TOTEN  =      -179.37243517 eV

  energy without entropy =     -179.36660463  energy(sigma->0) =     -179.36951990


--------------------------------------------------------------------------------------------------------




--------------------------------------- Iteration      1(  12)  ---------------------------------------


    POTLOK:  cpu time      0.0044: real time      0.0045
    SETDIJ:  cpu time      0.0016: real time      0.0016
     EDDAV:  cpu time      3.4213: real time      3.4348
       DOS:  cpu time      0.0045: real time      0.0045
    CHARGE:  cpu time      0.0789: real time      0.0792
    MIXING:  cpu time      0.0003: real time      0.0003
    --------------------------------------------
      LOOP:  cpu time      3.5110: real time      3.5250

 eigenvalue-minimisations  : 19752
[...]
     17     -25.8135      2.00000
     18     -25.7672      2.00000
     19     -25.7583      2.00000
     20     -25.7049      2.00000
     21     -25.6831      2.00000
     22     -25.6610      2.00000
     23     -25.5924      2.00000
     24     -25.5675      2.00000
     25     -25.5296      2.00000
     26     -25.2164      2.00000
     27     -25.1562      2.00000
     28     -25.1354      2.00000
     29     -25.1133      2.00000
     30     -25.0881      2.00000
     31     -25.0411      2.00000
     32     -24.9742      2.00000
     33     -24.9505      2.00000
     34     -24.9280      2.00000
     35     -24.9029      2.00000
     36     -24.8589      2.00000
     37     -24.8471      2.00000
     38     -24.7383      2.00000
     39     -24.6841      2.00000
     40     -24.6694      2.00000
     41     -24.6490      2.00000
     42     -24.6363      2.00000
     43     -24.6223      2.00000
     44     -21.8913      2.00000
     45     -21.8682      2.00000
     46     -21.7776      2.00000
     47     -21.6575      2.00000
     48     -21.5698      2.00000
     49     -21.5313      2.00000
     50     -21.5113      2.00000
     51     -21.5023      2.00000
     52     -21.4817      2.00000
     53     -21.4519      2.00000
     54     -21.4440      2.00000
     55     -21.3324      2.00000
     56     -21.2674      2.00000
     57     -21.1966      2.00000
     58     -21.1667      2.00000
     59       3.6749      2.00000
     60       4.2499      2.00000
     61       4.5838      2.00000
     62       4.6274      2.00000
     63       5.0917      2.00000
     64       5.2715      2.00000
     65       5.4318      2.00000
     66       5.9787      2.00000
     67       6.2288      2.00000
     68       6.2918      2.00000
     69       6.3141      2.00000
     70       6.3668      2.00000
     71       6.4284      2.00000
     72       6.5118      2.00000
     73       6.5516      2.00000
     74       6.5647      2.00000
     75       6.6111      2.00000
     76       6.6461      2.00000
     77       6.6782      2.00000
     78       6.7063      2.00000
     79       6.9902      2.00000
     80       7.0731      2.00000
     81       7.1589      2.00000
     82       7.1790      2.00000
     83       7.2595      2.00000
     84       7.3061      2.00000
     85       7.3173      2.00000
     86       7.3523      2.00000
     87       7.3787      2.00000
     88       7.4049      2.00000
     89       7.4311      2.00000
     90       7.4604      2.00000
     91       7.4753      2.00000
     92       7.5052      2.00000
     93       7.5450      2.00000
     94       7.5605      2.00000
     95       7.5975      2.00000
     96       7.6242      2.00000
     97       7.6541      2.00000
     98       7.6745      2.00000
     99       7.7493      2.00000
    100       7.8194      2.00000
    101       7.8357      2.00000
    102       7.8814      2.00000
    103       7.9205      2.00000
    104       7.9541      2.00000
    105       7.9855      2.00000
    106       8.3805      2.00000
    107      11.0043      0.00000
    108      11.0172      0.00000
    109      11.0938      0.00000
    110      11.1593      0.00000
    111      11.3121      0.00000
    112      11.3958      0.00000
    113      11.4587      0.00000
    114      11.5261      0.00000
    115      11.6382      0.00000
    116      11.6465      0.00000
    117      11.6912      0.00000
    118      11.7795      0.00000
    119      11.8227      0.00000
    120      12.0490      0.00000

 k-point    63 :       0.4000   -0.4000    0.4000
  band No.  band energies     occupation 
      1     -64.6057      2.00000
      2     -51.6277      2.00000
      3     -51.6159      2.00000
      4     -51.5339      2.00000
      5     -51.5128      2.00000
      6     -45.4729      2.00000
      7     -45.4375      2.00000
      8     -45.4118      2.00000
      9     -45.3598      2.00000
     10     -45.3519      2.00000
     11     -28.8424      2.00000
     12     -28.8390      2.00000
     13     -28.8213      2.00000
     14     -25.9154      2.00000
     15     -25.8935      2.00000
     16     -25.8855      2.00000
     17     -25.8167      2.00000
     18     -25.7708      2.00000
     19     -25.7551      2.00000
     20     -25.7040      2.00000
     21     -25.6821      2.00000
     22     -25.6610      2.00000
     23     -25.5825      2.00000
     24     -25.5615      2.00000
     25     -25.5321      2.00000
     26     -25.2185      2.00000
     27     -25.1619      2.00000
     28     -25.1370      2.00000
     29     -25.1170      2.00000
     30     -25.0952      2.00000
     31     -25.0479      2.00000
     32     -24.9697      2.00000
     33     -24.9519      2.00000
     34     -24.9273      2.00000
     35     -24.8952      2.00000
     36     -24.8639      2.00000
     37     -24.8399      2.00000
     38     -24.7368      2.00000
     39     -24.6835      2.00000
     40     -24.6694      2.00000
     41     -24.6494      2.00000
     42     -24.6314      2.00000
     43     -24.6250      2.00000
     44     -21.8895      2.00000
     45     -21.8652      2.00000
     46     -21.7769      2.00000
     47     -21.6572      2.00000
     48     -21.5707      2.00000
     49     -21.5273      2.00000
     50     -21.5203      2.00000
     51     -21.4988      2.00000
     52     -21.4915      2.00000
     53     -21.4520      2.00000
     54     -21.4457      2.00000
     55     -21.3323      2.00000
     56     -21.2650      2.00000
     57     -21.1930      2.00000
     58     -21.1648      2.00000
     59       3.6844      2.00000
     60       4.2490      2.00000
     61       4.4564      2.00000
     62       4.7465      2.00000
     63       5.1337      2.00000
     64       5.2814      2.00000
     65       5.3733      2.00000
     66       6.0048      2.00000
     67       6.2752      2.00000
     68       6.2952      2.00000
     69       6.3195      2.00000
     70       6.3310      2.00000
     71       6.3937      2.00000
     72       6.4709      2.00000
     73       6.5022      2.00000
     74       6.5549      2.00000
     75       6.6226      2.00000
     76       6.6701      2.00000
     77       6.6994      2.00000
     78       6.7671      2.00000
     79       7.0588      2.00000
     80       7.0971      2.00000
     81       7.1239      2.00000
     82       7.2103      2.00000
     83       7.2339      2.00000
     84       7.2884      2.00000
     85       7.3110      2.00000
     86       7.3300      2.00000
     87       7.3546      2.00000
     88       7.3777      2.00000
     89       7.4018      2.00000
     90       7.4185      2.00000
     91       7.4635      2.00000
     92       7.4702      2.00000
     93       7.5362      2.00000
     94       7.5920      2.00000
     95       7.6186      2.00000
     96       7.6361      2.00000
     97       7.7053      2.00000
     98       7.7279      2.00000
     99       7.7719      2.00000
    100       7.8169      2.00000
    101       7.8268      2.00000
    102       7.8810      2.00000
    103       7.8872      2.00000
    104       7.9364      2.00000
    105       7.9546      2.00000
    106       8.4180      2.00000
    107      10.8836      0.00000
    108      11.0732      0.00000
    109      11.1487      0.00000
    110      11.2047      0.00000
    111      11.2532      0.00000
    112      11.3618      0.00000
    113      11.4213      0.00000
    114      11.5354      0.00000
    115      11.6479      0.00000
    116      11.7261      0.00000
    117      11.7928      0.00000
    118      11.8279      0.00000
    119      11.8961      0.00000
    120      11.9715      0.00000


--------------------------------------------------------------------------------------------------------


 soft charge-density along one line, spin component           1
         0         1         2         3         4         5         6         7         8         9
 total charge-density along one line
 
 pseudopotential strength for first ion, spin component:           1
  5.779 -20.515  -0.001  -0.001   0.002   0.003   0.003  -0.004
-20.515   9.412  -0.002  -0.002   0.002   0.000   0.000  -0.000
 -0.001  -0.002  -9.922  -0.000  -0.001   6.195   0.000   0.001
 -0.001  -0.002  -0.000  -9.923   0.001   0.000   6.196  -0.001
  0.002   0.002  -0.001   0.001  -9.923   0.001  -0.001   6.196
  0.003   0.000   6.195   0.000   0.001   7.820  -0.000  -0.001
  0.003   0.000   0.000   6.196  -0.001  -0.000   7.819   0.001
 -0.004  -0.000   0.001  -0.001   6.196  -0.001   0.001   7.819
 -0.001  -0.000   0.002   0.000  -0.001  -0.002  -0.000   0.002
 -0.000  -0.000  -0.001  -0.001   0.000   0.002   0.002  -0.000
 -0.000  -0.000   0.001  -0.001  -0.001  -0.001   0.001   0.001
  0.001   0.000   0.000   0.002  -0.001  -0.000  -0.002   0.002
 -0.000  -0.000   0.001   0.000   0.001  -0.001   0.000  -0.001
 -0.001  -0.000   0.002   0.000  -0.002  -0.002  -0.000   0.002
 -0.000  -0.000  -0.002  -0.002   0.000   0.002   0.002  -0.000
 -0.000  -0.000   0.001  -0.001  -0.001  -0.001   0.002   0.001
  0.001   0.000   0.000   0.002  -0.002  -0.000  -0.002   0.002
 -0.000  -0.000   0.001   0.000   0.002  -0.001   0.000  -0.002
 total augmentation occupancy for first ion, spin component:           1
  1.995  -0.047  -0.000  -0.000   0.000  -0.000  -0.000   0.000  -0.004   0.003  -0.001   0.011  -0.002   0.003  -0.002   0.001
 -0.047   1.346  -0.000  -0.000   0.001   0.002   0.002  -0.003  -0.019  -0.002  -0.003   0.010  -0.009   0.012   0.006   0.002
 -0.000  -0.000   1.996  -0.000   0.000  -0.029   0.001  -0.001   0.004  -0.000   0.002  -0.005   0.003  -0.002  -0.000  -0.001
 -0.000  -0.000  -0.000   1.996  -0.000   0.001  -0.030   0.002  -0.004  -0.000  -0.004   0.004   0.000   0.003   0.000   0.003
  0.000   0.001   0.000  -0.000   1.996  -0.001   0.002  -0.030  -0.000  -0.004  -0.003   0.000   0.005   0.000   0.003   0.002
 -0.000   0.002  -0.029   0.001  -0.001   0.066  -0.001   0.001  -0.014   0.005  -0.002   0.008  -0.004   0.008  -0.002   0.001
 -0.000   0.002   0.001  -0.030   0.002  -0.001   0.068  -0.003   0.007   0.005   0.006  -0.013  -0.001  -0.004  -0.002  -0.003
  0.000  -0.003  -0.001   0.002  -0.030   0.001  -0.003   0.069   0.005   0.007   0.004   0.004  -0.006  -0.002  -0.004  -0.002
 -0.004  -0.019   0.004  -0.004  -0.000  -0.014   0.007   0.005   3.322  -0.064   0.030  -0.044  -0.001  -1.396   0.051  -0.013
  0.003  -0.002  -0.000  -0.000  -0.004   0.005   0.005   0.007  -0.064   3.319   0.012  -0.047  -0.021   0.051  -1.395  -0.005
 -0.001  -0.003   0.002  -0.004  -0.003  -0.002   0.006   0.004   0.030   0.012   2.727   0.039   0.023  -0.013  -0.005  -1.238
  0.011   0.010  -0.005   0.004   0.000   0.008  -0.013   0.004  -0.044  -0.047   0.039   3.305   0.067   0.028   0.022  -0.017
 -0.002  -0.009   0.003   0.000   0.005  -0.004  -0.001  -0.006  -0.001  -0.021   0.023   0.067   2.755   0.000   0.009  -0.009
  0.003   0.012  -0.002   0.003   0.000   0.008  -0.004  -0.002  -1.396   0.051  -0.013   0.028   0.000   0.597  -0.032   0.006
 -0.002   0.006  -0.000   0.000   0.003  -0.002  -0.002  -0.004   0.051  -1.395  -0.005   0.022   0.009  -0.032   0.597   0.002
  0.001   0.002  -0.001   0.003   0.002   0.001  -0.003  -0.002  -0.013  -0.005  -1.238  -0.017  -0.009   0.006   0.002   0.570
 -0.008   0.009   0.003  -0.002  -0.000  -0.005   0.007  -0.001   0.028   0.022  -0.017  -1.390  -0.029  -0.016  -0.011   0.007
  0.001   0.005  -0.002  -0.000  -0.004   0.002   0.000   0.003   0.000   0.009  -0.009  -0.030  -1.248   0.000  -0.004   0.003


------------------------ aborting loop because EDIFF is reached ----------------------------------------


    CHARGE:  cpu time      0.1618: real time      0.1623
    FORLOC:  cpu time      0.0005: real time      0.0005
    FORNL :  cpu time      1.0468: real time      1.0509
    STRESS:  cpu time      1.2607: real time      1.2649
    FORCOR:  cpu time      0.0202: real time      0.0203
    FORHAR:  cpu time      0.1280: real time      0.1283
    MIXING:  cpu time      0.3684: real time      0.3697
    OFIELD:  cpu time      0.0000: real time      0.0000

  FORCE on cell =-STRESS in cart. coord.  units (eV):
  Direction    XX          YY          ZZ          XY          YZ          ZX
  --------------------------------------------------------------------------------------
  Alpha Z  1778.92151  1778.92151  1778.92151
  Ewald   -6732.30866 -6751.36353 -6692.05052     0.00000    -0.00000     6.32305
  Hartree  1124.36515  1106.59181  1164.67089     0.11493    -0.02217     5.58085
  E(xc)    -911.11272  -911.09223  -911.09988     0.00164     0.00033    -0.00379
  Local    1536.88577  1574.61095  1455.66802    -0.28507     0.04603   -10.21301
  n-local  -459.34728  -462.36341  -458.77124    -0.02090    -0.03316    -2.53454
  augment   425.37364   425.49403   425.32507     0.02475    -0.00786    -0.14266
  Kinetic  3220.28572  3222.19320  3220.09751     0.16769     0.05127     1.37877
  Fock        0.00000     0.00000     0.00000     0.00000     0.00000     0.00000
  -------------------------------------------------------------------------------------
  Total     -16.93687   -17.00768   -17.23864     0.00304     0.03443     0.38867
  in kB     -95.25026   -95.64848   -96.94735     0.01709     0.19364     2.18583
  external pressure =      -95.95 kB  Pullay stress =        0.00 kB


 VOLUME and BASIS-vectors are now :
 -----------------------------------------------------------------------------
  energy-cutoff  :      250.00
  volume of cell :      284.89
      direct lattice vectors                 reciprocal lattice vectors
     6.580000000  0.000000000  0.000000000     0.151975684  0.000000000  0.000000000
     0.000000000  6.580000000  0.000000000     0.000000000  0.151975684  0.000000000
     0.000000000  0.000000000  6.580000000     0.000000000  0.000000000  0.151975684

  length of vectors
     6.580000000  6.580000000  6.580000000     0.151975684  0.151975684  0.151975684


 FORCES acting on ions
    electron-ion (+dipol)            ewald-force                    non-local-force                 convergence-correction
 -----------------------------------------------------------------------------------------------
   0.511E+02 -.512E+02 -.104E+02   -.510E+02 0.510E+02 0.102E+02   0.203E+00 -.728E-01 -.453E-01   -.416E-04 -.322E-04 -.243E-05
   0.512E+02 0.512E+02 -.104E+02   -.510E+02 -.510E+02 0.102E+02   0.168E+00 0.429E-01 -.100E-01   -.199E-04 0.376E-04 -.560E-05
   0.408E+02 -.616E+02 0.408E+02   -.408E+02 0.612E+02 -.408E+02   0.136E+00 -.924E-01 0.120E+00   0.268E-04 -.827E-05 0.348E-04
   -.408E+02 -.616E+02 -.408E+02   0.408E+02 0.612E+02 0.408E+02   -.138E+00 -.943E-01 -.143E+00   -.218E-04 -.246E-04 -.447E-04
   -.407E+02 0.616E+02 -.408E+02   0.408E+02 -.612E+02 0.408E+02   -.146E+00 0.116E+00 -.132E+00   -.106E-04 0.259E-04 -.391E-04
   -.548E+02 0.550E+02 -.110E+02   0.549E+02 -.549E+02 0.110E+02   -.192E+00 0.586E-01 -.759E-01   0.303E-04 0.277E-04 0.876E-05
   -.438E+02 0.661E+02 0.438E+02   0.439E+02 -.659E+02 -.439E+02   -.836E-01 0.787E-01 0.832E-01   -.128E-04 0.285E-04 0.346E-04
   -.438E+02 -.662E+02 0.438E+02   0.439E+02 0.659E+02 -.439E+02   -.133E+00 -.106E+00 0.116E+00   -.226E-04 -.333E-04 0.445E-04
   0.548E+02 0.550E+02 0.110E+02   -.549E+02 -.549E+02 -.110E+02   0.198E+00 0.673E-01 0.837E-01   -.484E-04 0.250E-04 -.267E-06
   -.433E+02 -.433E+02 0.882E+01   0.431E+02 0.431E+02 -.863E+01   -.170E+00 -.103E+00 0.691E-01   0.435E-04 -.721E-05 -.124E-05
   0.345E+02 0.522E+02 -.345E+02   -.345E+02 -.518E+02 0.345E+02   0.849E-01 0.811E-01 -.908E-01   0.700E-05 0.186E-04 -.142E-04
   -.434E+02 -.434E+02 -.888E+01   0.431E+02 0.431E+02 0.863E+01   -.926E-01 0.140E-02 0.272E-02   0.320E-04 -.233E-04 0.985E-06
   0.433E+02 -.434E+02 0.888E+01   -.431E+02 0.431E+02 -.863E+01   0.965E-01 -.833E-02 0.278E-02   -.408E-04 -.214E-04 0.266E-05
   -.434E+02 0.434E+02 0.891E+01   0.431E+02 -.431E+02 -.863E+01   -.804E-01 0.256E-01 0.988E-02   0.273E-04 0.114E-04 0.121E-06
   0.345E+02 0.522E+02 0.345E+02   -.345E+02 -.518E+02 -.345E+02   0.839E-01 0.191E+00 0.883E-01   0.149E-04 0.489E-05 0.157E-04
   0.439E+02 -.661E+02 -.439E+02   -.439E+02 0.659E+02 0.439E+02   0.969E-02 -.137E+00 -.142E-01   0.170E-04 -.224E-04 -.329E-04
 -----------------------------------------------------------------------------------------------
   0.559E-01 -.490E-01 -.651E-01   0.995E-13 0.142E-13 0.853E-13   -.559E-01 0.491E-01 0.651E-01   -.196E-04 0.702E-05 0.169E-05
 
 
 POSITION                                       TOTAL-FORCE (eV/Angst)
 -----------------------------------------------------------------------------------
      0.00000      3.29000      0.00000         0.333669     -0.288199     -0.217895
      0.00000      0.00000      0.00000         0.375044      0.298789     -0.246338
      4.93500      1.64500      4.93500         0.098054     -0.544877      0.114473
      1.64500      1.64500      1.64500        -0.137555     -0.543125     -0.105283
      1.64500      4.93500      1.64500        -0.096698      0.525205     -0.118526
      3.29000      0.00000      0.00000        -0.103694      0.181114     -0.124892
      1.64500      4.93500      4.93500         0.013061      0.309021     -0.009201
      1.64500      1.64500      4.93500         0.010592     -0.365306     -0.010599
      0.00000      0.00000      3.29000         0.106062      0.194562      0.117017
      3.29000      3.29000      3.29000        -0.304459     -0.281015      0.264708
      4.93500      4.93500      1.64500         0.032166      0.537488     -0.035195
      3.29000      3.29000      0.00000        -0.304220     -0.263606     -0.249538
      0.00000      3.29000      3.29000         0.301428     -0.271085      0.249104
      3.29000      0.00000      3.29000        -0.346821      0.305495      0.294544
      4.93500      4.93500      4.93500         0.053476      0.580285      0.039465
      4.93500      1.64500      1.64500        -0.030108     -0.374747      0.038154
 -----------------------------------------------------------------------------------
    total drift:                               -0.000014      0.000009      0.000011


--------------------------------------------------------------------------------------------------------



  FREE ENERGIE OF THE ION-ELECTRON SYSTEM (eV)
  ---------------------------------------------------
  free  energy   TOTEN  =      -179.36553256 eV

  energy  without entropy=     -179.35954785  energy(sigma->0) =     -179.36254020
 


--------------------------------------------------------------------------------------------------------


    POTLOK:  cpu time      0.0121: real time      0.0121


--------------------------------------------------------------------------------------------------------


     LOOP+:  cpu time    156.1707: real time    161.9296
    4ORBIT:  cpu time      0.0000: real time      0.0000

 total amount of memory used by VASP MPI-rank0    47721. kBytes
=======================================================================

   base      :      30000. kBytes
   nonl-proj :       8332. kBytes
   fftplans  :        456. kBytes
   grid      :        919. kBytes
   one-center:         31. kBytes
   wavefun   :       7983. kBytes
 
  
  
 General timing and accounting informations for this job:
 ========================================================
  
                  Total CPU time used (sec):      159.667
                            User time (sec):      156.958
                          System time (sec):        2.709
                         Elapsed time (sec):      166.301
  
                   Maximum memory used (kb):       89684.
                   Average memory used (kb):          N/A
  
                          Minor page faults:        10464
                          Major page faults:            0
                 Voluntary context switches:          226
