 vasp.6.3.1 04May22 (build Jul 26 2022 04:02:40) complex                        
  
 executed on             LinuxIFC date 2023.11.30  02:12:00
 running on   48 total cores
 distrk:  each k-point on   48 cores,    1 groups
 distr:  one band on NCORE=  12 cores,    4 groups


--------------------------------------------------------------------------------------------------------


 INCAR:
   ISTART = 0
   NWRITE = 2
   PREC = Accurate
   ENCUT = 250
   GGA = PE
   NSW = 0
   ISIF = 2
   ISYM = 2
   NBLOCK = 1
   KBLOCK = 1
   IBRION = -1
   NELM = 80
   EDIFF = 1E-08
   EDIFFG = -0.01
   ALGO = Normal
   LDIAG = .TRUE.
   LREAL = .FALSE.
   ISMEAR = 0
   SIGMA = 0.02
   ICHARG = 2
   LPLANE = .TRUE.
   NPAR = 4
   LSCALU = .FALSE.
   NSIM = 4
   LWAVE = .FALSE.
   LCHARG = .FALSE.
   ICORELEVEL = 1

 POTCAR:    PAW_PBE Nb_sv 25May2007               
 POTCAR:    PAW_PBE Mo_sv 02Feb2006               
 POTCAR:    PAW_PBE Ta_pv 07Sep2000               
 POTCAR:    PAW_PBE W_sv 04Sep2015                
 POTCAR:    PAW_PBE Nb_sv 25May2007               
   SHA256 =  0e8fc07c9fcd1164cf2ade22d0399fd28f85e91cd773dfa6cf24839a48c95e24 Nb_sv/POTCAR          
   COPYR  = (c) Copyright 25May2007 Georg Kresse                                                    
   COPYR  = This file is part of the software VASP. Any use, copying, and all other rights are regul
   COPYR  = If you do not have a valid VASP license, you may not use, copy or distribute this file. 
   VRHFIN =Nb: 4p5s4d                                                                               
   LEXCH  = PE                                                                                      
   EATOM  =  1555.1913 eV,  114.3033 Ry                                                             
                                                                                                    
   TITEL  = PAW_PBE Nb_sv 25May2007                                                                 
   LULTRA =        F    use ultrasoft PP ?                                                          
   IUNSCR =        1    unscreen: 0-lin 1-nonlin 2-no                                               
   RPACOR =    1.800    partial core radius                                                         
   POMASS =   92.910; ZVAL   =   13.000    mass and valenz                                          
   RCORE  =    2.400    outmost cutoff radius                                                       
   RWIGS  =    2.400; RWIGS  =    1.270    wigner-seitz radius (au A)                               
   ENMAX  =  293.235; ENMIN  =  219.927 eV                                                          
   ICORE  =        3    local potential                                                             
   LCOR   =        T    correct aug charges                                                         
   LPAW   =        T    paw PP                                                                      
   EAUG   =  455.659                                                                                
   DEXC   =    0.000                                                                                
   RMAX   =    2.456    core radius for proj-oper                                                   
   RAUG   =    1.300    factor for augmentation sphere                                              
   RDEP   =    2.451    radius for radial grids                                                     
   RDEPT  =    1.956    core radius for aug-charge                                                  
                                                                                                    
   Atomic configuration                                                                             
   11 entries                                                                                       
     n  l   j            E        occ.                                                              
     1  0  0.50    -18805.2457   2.0000                                                             
     2  0  0.50     -2630.2869   2.0000                                                             
     2  1  1.50     -2348.4046   6.0000                                                             
     3  0  0.50      -438.8757   2.0000                                                             
     3  1  1.50      -346.7588   6.0000                                                             
     3  2  2.50      -196.2560  10.0000                                                             
     4  0  0.50       -58.3859   2.0000                                                             
     5  0  0.50        -3.9816   1.0000                                                             
     4  1  1.50       -34.5141   6.0000                                                             
     4  2  2.50        -3.0408   4.0000                                                             
     4  3  2.50        -1.3606   0.0000                                                             
   Description                                                                                      
     l       E           TYP  RCUT    TYP  RCUT                                                     
     0    -58.3859094     23  2.200                                                                 
     0     -3.9816262     23  2.200                                                                 
     1    -34.5140738     23  2.200                                                                 
     1     13.6058260     23  2.200                                                                 
     2     -3.0408010     23  2.200                                                                 
     2     -0.1283038     23  2.200                                                                 
     3     -1.3605826     23  2.400                                                                 
  local pseudopotential read in
  partial core-charges read in
  partial kinetic energy density read in
  atomic valenz-charges read in
  non local Contribution for L=           0  read in
    real space projection operators read in
  non local Contribution for L=           0  read in
    real space projection operators read in
  non local Contribution for L=           1  read in
    real space projection operators read in
  non local Contribution for L=           1  read in
    real space projection operators read in
  non local Contribution for L=           2  read in
    real space projection operators read in
  non local Contribution for L=           2  read in
    real space projection operators read in
    PAW grid and wavefunctions read in
 
   number of l-projection  operators is LMAX  =           6
   number of lm-projection operators is LMMAX =          18
 
 POTCAR:    PAW_PBE Mo_sv 02Feb2006               
   SHA256 =  2731df97e41766cc617548c5a8267718fdef1f509ac6bafa01e745abea2bdfaa Mo_sv/POTCAR          
   COPYR  = (c) Copyright 02Feb2006 Georg Kresse                                                    
   COPYR  = This file is part of the software VASP. Any use, copying, and all other rights are regul
   COPYR  = If you do not have a valid VASP license, you may not use, copy or distribute this file. 
   VRHFIN =Mo: 4p5s4d                                                                               
   LEXCH  = PE                                                                                      
   EATOM  =  1862.2866 eV,  136.8742 Ry                                                             
                                                                                                    
   TITEL  = PAW_PBE Mo_sv 02Feb2006                                                                 
   LULTRA =        F    use ultrasoft PP ?                                                          
   IUNSCR =        1    unscreen: 0-lin 1-nonlin 2-no                                               
   RPACOR =    2.200    partial core radius                                                         
   POMASS =   95.940; ZVAL   =   14.000    mass and valenz                                          
   RCORE  =    2.500    outmost cutoff radius                                                       
   RWIGS  =    2.750; RWIGS  =    1.455    wigner-seitz radius (au A)                               
   ENMAX  =  242.676; ENMIN  =  182.007 eV                                                          
   ICORE  =        3    local potential                                                             
   LCOR   =        T    correct aug charges                                                         
   LPAW   =        T    paw PP                                                                      
   EAUG   =  446.014                                                                                
   DEXC   =    0.000                                                                                
   RMAX   =    2.563    core radius for proj-oper                                                   
   RAUG   =    1.300    factor for augmentation sphere                                              
   RDEP   =    2.641    radius for radial grids                                                     
   RDEPT  =    2.031    core radius for aug-charge                                                  
                                                                                                    
   Atomic configuration                                                                             
   11 entries                                                                                       
     n  l   j            E        occ.                                                              
     1  0  0.50    -19819.0341   2.0000                                                             
     2  0  0.50     -2799.0127   2.0000                                                             
     2  1  1.50     -2502.0276   6.0000                                                             
     3  0  0.50      -476.4449   2.0000                                                             
     3  1  1.50      -379.1496   6.0000                                                             
     3  2  2.50      -220.9367  10.0000                                                             
     4  0  0.50       -64.3378   2.0000                                                             
     5  0  0.50        -4.0862   1.0000                                                             
     4  1  1.50       -38.4773   6.0000                                                             
     4  2  2.50        -3.7535   5.0000                                                             
     4  3  2.50        -1.3606   0.0000                                                             
   Description                                                                                      
     l       E           TYP  RCUT    TYP  RCUT                                                     
     0    -64.3377829     23  2.100                                                                 
     0     -4.0861640     23  2.400                                                                 
     1    -38.4772993     23  2.100                                                                 
     1     13.6058260     23  2.100                                                                 
     2     -3.7534941     23  2.400                                                                 
     2     -5.1140767     23  2.400                                                                 
     3     -4.0817478     23  2.500                                                                 
  local pseudopotential read in
  partial core-charges read in
  partial kinetic energy density read in
  atomic valenz-charges read in
  non local Contribution for L=           0  read in
    real space projection operators read in
  non local Contribution for L=           0  read in
    real space projection operators read in
  non local Contribution for L=           1  read in
    real space projection operators read in
  non local Contribution for L=           1  read in
    real space projection operators read in
  non local Contribution for L=           2  read in
    real space projection operators read in
  non local Contribution for L=           2  read in
    real space projection operators read in
    PAW grid and wavefunctions read in
 
   number of l-projection  operators is LMAX  =           6
   number of lm-projection operators is LMMAX =          18
 
 POTCAR:    PAW_PBE Ta_pv 07Sep2000               
   SHA256 =  00d0a14a36c127416459414afb8617d9754996fffa60a2465888e660b20a452f Ta_pv/POTCAR          
   COPYR  = (c) Copyright 07Sep2000 Georg Kresse                                                    
   COPYR  = This file is part of the software VASP. Any use, copying, and all other rights are regul
   COPYR  = If you do not have a valid VASP license, you may not use, copy or distribute this file. 
   VRHFIN =Ta:  5p6s5d                                                                              
   LEXCH  = PE                                                                                      
   EATOM  =  1047.1984 eV,   76.9669 Ry                                                             
                                                                                                    
   TITEL  = PAW_PBE Ta_pv 07Sep2000                                                                 
   LULTRA =        F    use ultrasoft PP ?                                                          
   IUNSCR =        1    unscreen: 0-lin 1-nonlin 2-no                                               
   RPACOR =    2.330    partial core radius                                                         
   POMASS =  180.948; ZVAL   =   11.000    mass and valenz                                          
   RCORE  =    2.500    outmost cutoff radius                                                       
   RWIGS  =    2.840; RWIGS  =    1.503    wigner-seitz radius (au A)                               
   ENMAX  =  223.667; ENMIN  =  167.750 eV                                                          
   RCLOC  =    2.205    cutoff for local pot                                                        
   LCOR   =        T    correct aug charges                                                         
   LPAW   =        T    paw PP                                                                      
   EAUG   =  377.421                                                                                
   DEXC   =    0.000                                                                                
   RMAX   =    2.551    core radius for proj-oper                                                   
   RAUG   =    1.300    factor for augmentation sphere                                              
   RDEP   =    2.526    radius for radial grids                                                     
   RDEPT  =    2.132    core radius for aug-charge                                                  
                                                                                                    
   Atomic configuration                                                                             
   15 entries                                                                                       
     n  l   j            E        occ.                                                              
     1  0  0.50    -67341.2801   2.0000                                                             
     2  0  0.50    -11566.9369   2.0000                                                             
     2  1  1.50    -10134.1175   6.0000                                                             
     3  0  0.50     -2648.5614   2.0000                                                             
     3  1  1.50     -2222.6006   6.0000                                                             
     3  2  2.50     -1726.3114  10.0000                                                             
     4  0  0.50      -538.6957   2.0000                                                             
     4  1  1.50      -399.0125   6.0000                                                             
     4  2  2.50      -220.3955  10.0000                                                             
     4  3  3.50       -23.0371  14.0000                                                             
     5  0  0.50       -71.2900   2.0000                                                             
     5  1  1.50       -37.8224   6.0000                                                             
     5  2  2.50        -2.6455   4.0000                                                             
     6  0  0.50        -4.9623   1.0000                                                             
     5  3  2.50        -1.3606   0.0000                                                             
   Description                                                                                      
     l       E           TYP  RCUT    TYP  RCUT                                                     
     1    -37.8224449     23  2.500                                                                 
     1      1.3605826     23  2.500                                                                 
     2     -2.6454718     23  2.500                                                                 
     2     -0.6258570     23  2.500                                                                 
     0     -4.9622674     23  2.500                                                                 
     0      4.7531427     23  2.500                                                                 
  local pseudopotential read in
  partial core-charges read in
  partial kinetic energy density read in
  atomic valenz-charges read in
  non local Contribution for L=           1  read in
    real space projection operators read in
  non local Contribution for L=           1  read in
    real space projection operators read in
  non local Contribution for L=           2  read in
    real space projection operators read in
  non local Contribution for L=           2  read in
    real space projection operators read in
  non local Contribution for L=           0  read in
    real space projection operators read in
  non local Contribution for L=           0  read in
    real space projection operators read in
    PAW grid and wavefunctions read in
 
   number of l-projection  operators is LMAX  =           6
   number of lm-projection operators is LMMAX =          18
 
 POTCAR:    PAW_PBE W_sv 04Sep2015                
   SHA256 =  931c2d770f65867ef30f3db3421922900fc0890ebac5c3e12f63b6a2064023d7 W_sv/POTCAR           
   COPYR  = (c) Copyright 04Sep2015 Georg Kresse                                                    
   COPYR  = This file is part of the software VASP. Any use, copying, and all other rights are regul
   COPYR  = If you do not have a valid VASP license, you may not use, copy or distribute this file. 
   VRHFIN =W : 5p6s5d                                                                               
   LEXCH  = PE                                                                                      
   EATOM  =  1865.5791 eV,  137.1162 Ry                                                             
                                                                                                    
   TITEL  = PAW_PBE W_sv 04Sep2015                                                                  
   LULTRA =        F    use ultrasoft PP ?                                                          
   IUNSCR =        1    unscreen: 0-lin 1-nonlin 2-no                                               
   RPACOR =    2.330    partial core radius                                                         
   POMASS =  183.850; ZVAL   =   14.000    mass and valenz                                          
   RCORE  =    2.500    outmost cutoff radius                                                       
   RWIGS  =    2.750; RWIGS  =    1.455    wigner-seitz radius (au A)                               
   ENMAX  =  223.057; ENMIN  =  167.293 eV                                                          
   ICORE  =        3    local potential                                                             
   LCOR   =        T    correct aug charges                                                         
   LPAW   =        T    paw PP                                                                      
   EAUG   =  373.438                                                                                
   DEXC   =    0.000                                                                                
   RMAX   =    2.565    core radius for proj-oper                                                   
   RAUG   =    1.300    factor for augmentation sphere                                              
   RDEP   =    2.539    radius for radial grids                                                     
   RDEPT  =    2.126    core radius for aug-charge                                                  
                                                                                                    
   Atomic configuration                                                                             
   15 entries                                                                                       
     n  l   j            E        occ.                                                              
     1  0  0.50    -69465.5834   2.0000                                                             
     2  0  0.50    -11986.2640   2.0000                                                             
     2  1  1.50    -10479.8613   6.0000                                                             
     3  0  0.50     -2759.0756   2.0000                                                             
     3  1  1.50     -2313.1855   6.0000                                                             
     3  2  2.50     -1801.1183  10.0000                                                             
     4  0  0.50      -567.6789   2.0000                                                             
     4  1  1.50      -421.4692   6.0000                                                             
     4  2  2.50      -236.3471  10.0000                                                             
     4  3  3.50       -31.2665  14.0000                                                             
     5  0  0.50       -77.1084   2.0000                                                             
     6  0  0.50        -5.1438   1.0000                                                             
     5  1  1.50       -41.3856   6.0000                                                             
     5  2  2.50        -3.3185   5.0000                                                             
     5  3  2.50        -1.3606   0.0000                                                             
   Description                                                                                      
     l       E           TYP  RCUT    TYP  RCUT                                                     
     0    -77.1084470     23  2.100                                                                 
     0     -5.1437956     23  2.300                                                                 
     1    -41.3855615     23  2.500                                                                 
     1     -2.7211652     23  2.500                                                                 
     2     -3.3185025     23  2.500                                                                 
     2     -1.5965151     23  2.500                                                                 
     3     -1.3605826     23  2.500                                                                 
  local pseudopotential read in
  partial core-charges read in
  partial kinetic energy density read in
  kinetic energy density of atom read in
  atomic valenz-charges read in
  non local Contribution for L=           0  read in
    real space projection operators read in
  non local Contribution for L=           0  read in
    real space projection operators read in
  non local Contribution for L=           1  read in
    real space projection operators read in
  non local Contribution for L=           1  read in
    real space projection operators read in
  non local Contribution for L=           2  read in
    real space projection operators read in
  non local Contribution for L=           2  read in
    real space projection operators read in
    PAW grid and wavefunctions read in
 
   number of l-projection  operators is LMAX  =           6
   number of lm-projection operators is LMMAX =          18
 
  PAW_PBE Nb_sv 25May2007               :
 energy of atom  1       EATOM=-1555.1913
 kinetic energy error for atom=    0.2155 (will be added to EATOM!!)
  PAW_PBE Mo_sv 02Feb2006               :
 energy of atom  2       EATOM=-1862.2866
 kinetic energy error for atom=    0.1102 (will be added to EATOM!!)
  PAW_PBE Ta_pv 07Sep2000               :
 energy of atom  3       EATOM=-1047.1984
 kinetic energy error for atom=    0.0394 (will be added to EATOM!!)
  PAW_PBE W_sv 04Sep2015                :
 energy of atom  4       EATOM=-1865.5791
 kinetic energy error for atom=    0.0589 (will be added to EATOM!!)
 
 
 POSCAR: Nb-Mo-Ta-W alloy
  positions in direct lattice
  No initial velocities read in
 exchange correlation table for  LEXCH =        8
   RHO(1)=    0.500       N(1)  =     2000
   RHO(2)=  100.500       N(2)  =     4000
 


--------------------------------------------------------------------------------------------------------


 ion  position               nearest neighbor table
   1  0.500  0.000  0.000-   2 2.85   3 2.85   5 2.85   6 2.85   8 2.85  12 2.85  13 2.85  16 2.85
                             9 3.29   9 3.29
   2  0.250  0.250  0.250-   1 2.85   4 2.85   7 2.85   9 2.85  10 2.85  11 2.85  14 2.85  15 2.85
                             8 3.29   8 3.29
   3  0.750  0.250  0.750-   1 2.85   4 2.85   7 2.85   9 2.85  10 2.85  11 2.85  14 2.85  15 2.85

   4  0.000  0.000  0.500-   2 2.85   3 2.85   5 2.85   6 2.85   8 2.85  12 2.85  13 2.85  16 2.85
                             9 3.29   9 3.29
   5  0.750  0.750  0.250-   1 2.85   4 2.85   7 2.85   9 2.85  10 2.85  11 2.85  14 2.85  15 2.85
                             8 3.29  12 3.29  16 3.29  12 3.29  16 3.29   8 3.29
   6  0.250  0.250  0.750-   1 2.85   4 2.85   7 2.85   9 2.85  10 2.85  11 2.85  14 2.85  15 2.85
                            13 3.29  13 3.29
   7  0.000  0.500  0.500-   2 2.85   3 2.85   5 2.85   6 2.85   8 2.85  12 2.85  13 2.85  16 2.85
                            11 3.29  10 3.29  10 3.29  11 3.29
   8  0.250  0.750  0.250-   1 2.85   4 2.85   7 2.85   9 2.85  10 2.85  11 2.85  14 2.85  15 2.85
                            13 3.29   2 3.29   5 3.29  13 3.29   2 3.29   5 3.29
   9  0.000  0.000  0.000-   2 2.85   3 2.85   5 2.85   6 2.85   8 2.85  12 2.85  13 2.85  16 2.85
                             4 3.29   1 3.29  10 3.29   4 3.29  10 3.29   1 3.29
  10  0.000  0.500  0.000-   2 2.85   3 2.85   5 2.85   6 2.85   8 2.85  12 2.85  13 2.85  16 2.85
                             9 3.29  15 3.29   7 3.29   7 3.29   9 3.29  15 3.29
  11  0.500  0.500  0.500-   2 2.85   3 2.85   5 2.85   6 2.85   8 2.85  12 2.85  13 2.85  16 2.85
                            14 3.29  15 3.29   7 3.29  15 3.29  14 3.29   7 3.29
  12  0.750  0.750  0.750-   1 2.85   4 2.85   7 2.85   9 2.85  10 2.85  11 2.85  14 2.85  15 2.85
                             5 3.29  13 3.29   5 3.29  13 3.29
  13  0.250  0.750  0.750-   1 2.85   4 2.85   7 2.85   9 2.85  10 2.85  11 2.85  14 2.85  15 2.85
                            12 3.29   8 3.29   6 3.29   8 3.29   6 3.29  12 3.29
  14  0.500  0.000  0.500-   2 2.85   3 2.85   5 2.85   6 2.85   8 2.85  12 2.85  13 2.85  16 2.85
                            11 3.29  11 3.29
  15  0.500  0.500  0.000-   2 2.85   3 2.85   5 2.85   6 2.85   8 2.85  12 2.85  13 2.85  16 2.85
                            11 3.29  10 3.29  11 3.29  10 3.29
  16  0.750  0.250  0.250-   1 2.85   4 2.85   7 2.85   9 2.85  10 2.85  11 2.85  14 2.85  15 2.85
                             5 3.29   5 3.29
 
  LATTYP: Found a simple cubic cell.
 ALAT       =     6.5800000000
  
  Lattice vectors:
  
 A1 = (   6.5800000000,   0.0000000000,   0.0000000000)
 A2 = (   0.0000000000,   6.5800000000,   0.0000000000)
 A3 = (   0.0000000000,   0.0000000000,   6.5800000000)


Analysis of symmetry for initial positions (statically):
=====================================================================
 Subroutine PRICEL returns:
 Original cell was already a primitive cell.
 

 Routine SETGRP: Setting up the symmetry group for a 
 simple cubic supercell.


 Subroutine GETGRP returns: Found  1 space group operations
 (whereof  1 operations were pure point group operations)
 out of a pool of 48 trial point group operations.


The static configuration has the point symmetry C_1 .


Analysis of symmetry for dynamics (positions and initial velocities):
=====================================================================
 Subroutine PRICEL returns:
 Original cell was already a primitive cell.
 

 Routine SETGRP: Setting up the symmetry group for a 
 simple cubic supercell.


 Subroutine GETGRP returns: Found  1 space group operations
 (whereof  1 operations were pure point group operations)
 out of a pool of 48 trial point group operations.


The dynamic configuration has the point symmetry C_1 .


 Subroutine INISYM returns: Found  1 space group operations
 (whereof  1 operations are pure point group operations),
 and found     1 'primitive' translations


----------------------------------------------------------------------------------------

                                     Primitive cell                                     

  volume of cell :     284.8903

  direct lattice vectors                    reciprocal lattice vectors
     6.580000000  0.000000000  0.000000000     0.151975684  0.000000000  0.000000000
     0.000000000  6.580000000  0.000000000     0.000000000  0.151975684  0.000000000
     0.000000000  0.000000000  6.580000000     0.000000000  0.000000000  0.151975684

  length of vectors
     6.580000000  6.580000000  6.580000000     0.151975684  0.151975684  0.151975684

  position of ions in fractional coordinates (direct lattice)
     0.500000000  0.000000000  0.000000000
     0.250000000  0.250000000  0.250000000
     0.750000000  0.250000000  0.750000000
     0.000000000  0.000000000  0.500000000
     0.750000000  0.750000000  0.250000000
     0.250000000  0.250000000  0.750000000
     0.000000000  0.500000000  0.500000000
     0.250000000  0.750000000  0.250000000
     0.000000000  0.000000000  0.000000000
     0.000000000  0.500000000  0.000000000
     0.500000000  0.500000000  0.500000000
     0.750000000  0.750000000  0.750000000
     0.250000000  0.750000000  0.750000000
     0.500000000  0.000000000  0.500000000
     0.500000000  0.500000000  0.000000000
     0.750000000  0.250000000  0.250000000

  ion indices of the primitive-cell ions
   primitive index   ion index
                 1           1
                 2           2
                 3           3
                 4           4
                 5           5
                 6           6
                 7           7
                 8           8
                 9           9
                10          10
                11          11
                12          12
                13          13
                14          14
                15          15
                16          16

----------------------------------------------------------------------------------------

 
 
 KPOINTS: K-Spacing Value to Generate K-Mesh: 0.03

Automatic generation of k-mesh.
 Grid dimensions read from file:
 generate k-points for:    5    5    5

 Generating k-lattice:

  Cartesian coordinates                     Fractional coordinates (reciprocal lattice)
     0.030395137  0.000000000  0.000000000     0.200000000  0.000000000  0.000000000
     0.000000000  0.030395137  0.000000000     0.000000000  0.200000000  0.000000000
     0.000000000  0.000000000  0.030395137     0.000000000  0.000000000  0.200000000

  Length of vectors
     0.030395137  0.030395137  0.030395137

  Shift w.r.t. Gamma in fractional coordinates (k-lattice)
     0.000000000  0.000000000  0.000000000

 
 Subroutine IBZKPT returns following result:
 ===========================================
 
 Found     63 irreducible k-points:
 
 Following reciprocal coordinates:
            Coordinates               Weight
  0.000000  0.000000  0.000000      1.000000
  0.200000  0.000000  0.000000      2.000000
  0.000000  0.200000  0.000000      2.000000
  0.000000  0.000000  0.200000      2.000000
  0.400000  0.000000  0.000000      2.000000
  0.000000  0.400000  0.000000      2.000000
  0.000000  0.000000  0.400000      2.000000
  0.200000  0.200000  0.000000      2.000000
  0.000000  0.200000  0.200000      2.000000
  0.200000  0.000000  0.200000      2.000000
 -0.200000  0.200000  0.000000      2.000000
 -0.200000  0.000000  0.200000      2.000000
  0.000000 -0.200000  0.200000      2.000000
  0.400000  0.200000  0.000000      2.000000
  0.000000  0.400000  0.200000      2.000000
  0.200000  0.000000  0.400000      2.000000
 -0.200000  0.400000  0.000000      2.000000
 -0.400000  0.000000  0.200000      2.000000
  0.000000  0.200000  0.400000      2.000000
  0.000000 -0.400000  0.200000      2.000000
 -0.200000  0.000000  0.400000      2.000000
  0.400000  0.000000  0.200000      2.000000
  0.000000 -0.200000  0.400000      2.000000
  0.400000 -0.200000  0.000000      2.000000
  0.200000  0.400000  0.000000      2.000000
  0.400000  0.400000  0.000000      2.000000
  0.000000  0.400000  0.400000      2.000000
  0.400000  0.000000  0.400000      2.000000
 -0.400000  0.400000  0.000000      2.000000
 -0.400000  0.000000  0.400000      2.000000
  0.000000 -0.400000  0.400000      2.000000
  0.200000  0.200000  0.200000      2.000000
 -0.200000  0.200000  0.200000      2.000000
 -0.200000 -0.200000  0.200000      2.000000
  0.200000 -0.200000  0.200000      2.000000
  0.400000  0.200000  0.200000      2.000000
  0.200000  0.400000  0.200000      2.000000
  0.200000  0.200000  0.400000      2.000000
 -0.200000  0.400000  0.200000      2.000000
 -0.400000  0.200000  0.200000      2.000000
 -0.200000  0.200000  0.400000      2.000000
 -0.400000 -0.200000  0.200000      2.000000
 -0.200000 -0.400000  0.200000      2.000000
 -0.200000 -0.200000  0.400000      2.000000
  0.200000 -0.400000  0.200000      2.000000
  0.400000 -0.200000  0.200000      2.000000
  0.200000 -0.200000  0.400000      2.000000
  0.400000  0.400000  0.200000      2.000000
  0.200000  0.400000  0.400000      2.000000
  0.400000  0.200000  0.400000      2.000000
 -0.400000  0.400000  0.200000      2.000000
 -0.400000  0.200000  0.400000      2.000000
 -0.200000  0.400000  0.400000      2.000000
 -0.400000 -0.400000  0.200000      2.000000
 -0.200000 -0.400000  0.400000      2.000000
 -0.400000 -0.200000  0.400000      2.000000
  0.400000 -0.400000  0.200000      2.000000
  0.400000 -0.200000  0.400000      2.000000
  0.200000 -0.400000  0.400000      2.000000
  0.400000  0.400000  0.400000      2.000000
 -0.400000  0.400000  0.400000      2.000000
 -0.400000 -0.400000  0.400000      2.000000
  0.400000 -0.400000  0.400000      2.000000
 
 Following cartesian coordinates:
            Coordinates               Weight
  0.000000  0.000000  0.000000      1.000000
  0.030395  0.000000  0.000000      2.000000
  0.000000  0.030395  0.000000      2.000000
  0.000000  0.000000  0.030395      2.000000
  0.060790  0.000000  0.000000      2.000000
  0.000000  0.060790  0.000000      2.000000
  0.000000  0.000000  0.060790      2.000000
  0.030395  0.030395  0.000000      2.000000
  0.000000  0.030395  0.030395      2.000000
  0.030395  0.000000  0.030395      2.000000
 -0.030395  0.030395  0.000000      2.000000
 -0.030395  0.000000  0.030395      2.000000
  0.000000 -0.030395  0.030395      2.000000
  0.060790  0.030395  0.000000      2.000000
  0.000000  0.060790  0.030395      2.000000
  0.030395  0.000000  0.060790      2.000000
 -0.030395  0.060790  0.000000      2.000000
 -0.060790  0.000000  0.030395      2.000000
  0.000000  0.030395  0.060790      2.000000
  0.000000 -0.060790  0.030395      2.000000
 -0.030395  0.000000  0.060790      2.000000
  0.060790  0.000000  0.030395      2.000000
  0.000000 -0.030395  0.060790      2.000000
  0.060790 -0.030395  0.000000      2.000000
  0.030395  0.060790  0.000000      2.000000
  0.060790  0.060790  0.000000      2.000000
  0.000000  0.060790  0.060790      2.000000
  0.060790  0.000000  0.060790      2.000000
 -0.060790  0.060790  0.000000      2.000000
 -0.060790  0.000000  0.060790      2.000000
  0.000000 -0.060790  0.060790      2.000000
  0.030395  0.030395  0.030395      2.000000
 -0.030395  0.030395  0.030395      2.000000
 -0.030395 -0.030395  0.030395      2.000000
  0.030395 -0.030395  0.030395      2.000000
  0.060790  0.030395  0.030395      2.000000
  0.030395  0.060790  0.030395      2.000000
  0.030395  0.030395  0.060790      2.000000
 -0.030395  0.060790  0.030395      2.000000
 -0.060790  0.030395  0.030395      2.000000
 -0.030395  0.030395  0.060790      2.000000
 -0.060790 -0.030395  0.030395      2.000000
 -0.030395 -0.060790  0.030395      2.000000
 -0.030395 -0.030395  0.060790      2.000000
  0.030395 -0.060790  0.030395      2.000000
  0.060790 -0.030395  0.030395      2.000000
  0.030395 -0.030395  0.060790      2.000000
  0.060790  0.060790  0.030395      2.000000
  0.030395  0.060790  0.060790      2.000000
  0.060790  0.030395  0.060790      2.000000
 -0.060790  0.060790  0.030395      2.000000
 -0.060790  0.030395  0.060790      2.000000
 -0.030395  0.060790  0.060790      2.000000
 -0.060790 -0.060790  0.030395      2.000000
 -0.030395 -0.060790  0.060790      2.000000
 -0.060790 -0.030395  0.060790      2.000000
  0.060790 -0.060790  0.030395      2.000000
  0.060790 -0.030395  0.060790      2.000000
  0.030395 -0.060790  0.060790      2.000000
  0.060790  0.060790  0.060790      2.000000
 -0.060790  0.060790  0.060790      2.000000
 -0.060790 -0.060790  0.060790      2.000000
  0.060790 -0.060790  0.060790      2.000000
 


--------------------------------------------------------------------------------------------------------




 Dimension of arrays:
   k-points           NKPTS =     63   k-points in BZ     NKDIM =     63   number of bands    NBANDS=    128
   number of dos      NEDOS =    301   number of ions     NIONS =     16
   non local maximal  LDIM  =      6   non local SUM 2l+1 LMDIM =     18
   total plane-waves  NPLWV =  46656
   max r-space proj   IRMAX =      1   max aug-charges    IRDMAX=   9546
   dimension x,y,z NGX =    36 NGY =   36 NGZ =   36
   dimension x,y,z NGXF=    72 NGYF=   72 NGZF=   72
   support grid    NGXF=    72 NGYF=   72 NGZF=   72
   ions per type =               4   3   3   6
   NGX,Y,Z   is equivalent  to a cutoff of   9.10,  9.10,  9.10 a.u.
   NGXF,Y,Z  is equivalent  to a cutoff of  18.19, 18.19, 18.19 a.u.

 SYSTEM =  unknown system                          
 POSCAR =  Nb-Mo-Ta-W alloy                        

 Startparameter for this run:
   NWRITE =      2    write-flag & timer
   PREC   = accura    normal or accurate (medium, high low for compatibility)
   ISTART =      0    job   : 0-new  1-cont  2-samecut
   ICHARG =      2    charge: 1-file 2-atom 10-const
   ISPIN  =      1    spin polarized calculation?
   LNONCOLLINEAR =      F non collinear calculations
   LSORBIT =      F    spin-orbit coupling
   INIWAV =      1    electr: 0-lowe 1-rand  2-diag
   LASPH  =      F    aspherical Exc in radial PAW
 Electronic Relaxation 1
   ENCUT  =  250.0 eV  18.37 Ry    4.29 a.u.   8.48  8.48  8.48*2*pi/ulx,y,z
   ENINI  =  250.0     initial cutoff
   ENAUG  =  455.7 eV  augmentation charge cutoff
   NELM   =     80;   NELMIN=  2; NELMDL= -5     # of ELM steps 
   EDIFF  = 0.1E-07   stopping-criterion for ELM
   LREAL  =      F    real-space projection
   NLSPLINE    = F    spline interpolate recip. space projectors
   LCOMPAT=      F    compatible to vasp.4.4
   GGA_COMPAT  = T    GGA compatible to vasp.4.4-vasp.4.6
   LMAXPAW     = -100 max onsite density
   LMAXMIX     =    2 max onsite mixed and CHGCAR
   VOSKOWN=      0    Vosko Wilk Nusair interpolation
   ROPT   =    0.00000   0.00000   0.00000   0.00000
 Ionic relaxation
   EDIFFG = -.1E-01   stopping-criterion for IOM
   NSW    =      0    number of steps for IOM
   NBLOCK =      1;   KBLOCK =      1    inner block; outer block 
   IBRION =     -1    ionic relax: 0-MD 1-quasi-New 2-CG
   NFREE  =      0    steps in history (QN), initial steepest desc. (CG)
   ISIF   =      2    stress and relaxation
   IWAVPR =     10    prediction:  0-non 1-charg 2-wave 3-comb
   ISYM   =      2    0-nonsym 1-usesym 2-fastsym
   LCORR  =      T    Harris-Foulkes like correction to forces

   POTIM  = 0.5000    time-step for ionic-motion
   TEIN   =    0.0    initial temperature
   TEBEG  =    0.0;   TEEND  =   0.0 temperature during run
   SMASS  =  -3.00    Nose mass-parameter (am)
   estimated Nose-frequenzy (Omega)   =  0.10E-29 period in steps = 0.13E+47 mass=  -0.989E-27a.u.
   SCALEE = 1.0000    scale energy and forces
   NPACO  =    256;   APACO  = 10.0  distance and # of slots for P.C.
   PSTRESS=    0.0 pullay stress

  Mass of Ions in am
   POMASS =  92.91 95.94180.95183.85
  Ionic Valenz
   ZVAL   =  13.00 14.00 11.00 14.00
  Atomic Wigner-Seitz radii
   RWIGS  =  -1.00 -1.00 -1.00 -1.00
  virtual crystal weights 
   VCA    =   1.00  1.00  1.00  1.00
   NELECT =     211.0000    total number of electrons
   NUPDOWN=      -1.0000    fix difference up-down

 DOS related values:
   EMIN   =  10.00;   EMAX   =-10.00  energy-range for DOS
   EFERMI =   0.00
   ISMEAR =     0;   SIGMA  =   0.02  broadening in eV -4-tet -1-fermi 0-gaus

 Electronic relaxation 2 (details)
   IALGO  =     38    algorithm
   LDIAG  =      T    sub-space diagonalisation (order eigenvalues)
   LSUBROT=      F    optimize rotation matrix (better conditioning)
   TURBO    =      0    0=normal 1=particle mesh
   IRESTART =      0    0=no restart 2=restart with 2 vectors
   NREBOOT  =      0    no. of reboots
   NMIN     =      0    reboot dimension
   EREF     =   0.00    reference energy to select bands
   IMIX   =      4    mixing-type and parameters
     AMIX     =   0.40;   BMIX     =  1.00
     AMIX_MAG =   1.60;   BMIX_MAG =  1.00
     AMIN     =   0.10
     WC   =   100.;   INIMIX=   1;  MIXPRE=   1;  MAXMIX= -45

 Intra band minimization:
   WEIMIN = 0.0000     energy-eigenvalue tresh-hold
   EBREAK =  0.20E-10  absolut break condition
   DEPER  =   0.30     relativ break condition  

   TIME   =   0.40     timestep for ELM

  volume/ion in A,a.u.               =      17.81       120.16
  Fermi-wavevector in a.u.,A,eV,Ry     =   1.481187  2.799037 29.850006  2.193914
  Thomas-Fermi vector in A             =   2.595128
 
 Write flags
   LWAVE        =      F    write WAVECAR
   LDOWNSAMPLE  =      F    k-point downsampling of WAVECAR
   LCHARG       =      F    write CHGCAR
   LVTOT        =      F    write LOCPOT, total local potential
   LVHAR        =      F    write LOCPOT, Hartree potential only
   LELF         =      F    write electronic localiz. function (ELF)
   LORBIT       =      0    0 simple, 1 ext, 2 COOP (PROOUT), +10 PAW based schemes


 Dipole corrections
   LMONO  =      F    monopole corrections only (constant potential shift)
   LDIPOL =      F    correct potential (dipole corrections)
   IDIPOL =      0    1-x, 2-y, 3-z, 4-all directions 
   EPSILON=  1.0000000 bulk dielectric constant

 Core level calculations are selected ICORELEVEL =  1
 Exchange correlation treatment:
   GGA     =    PE    GGA type
   LEXCH   =     8    internal setting for exchange type
   LIBXC   =     F    Libxc                    
   VOSKOWN =     0    Vosko Wilk Nusair interpolation
   LHFCALC =     F    Hartree Fock is set to
   LHFONE  =     F    Hartree Fock one center treatment
   AEXX    =    0.0000 exact exchange contribution

 Linear response parameters
   LEPSILON=     F    determine dielectric tensor
   LRPA    =     F    only Hartree local field effects (RPA)
   LNABLA  =     F    use nabla operator in PAW spheres
   LVEL    =     F    velocity operator in full k-point grid
   CSHIFT  =0.1000    complex shift for real part using Kramers Kronig
   OMEGAMAX=  -1.0    maximum frequency
   DEG_THRESHOLD= 0.2000000E-02 threshold for treating states as degnerate
   RTIME   =   -0.100 relaxation time in fs
  (WPLASMAI=    0.000 imaginary part of plasma frequency in eV, 0.658/RTIME)
   DFIELD  = 0.0000000 0.0000000 0.0000000 field for delta impulse in time
 
  Optional k-point grid parameters
   LKPOINTS_OPT  =     F    use optional k-point grid
   KPOINTS_OPT_MODE=     1    mode for optional k-point grid
 
 Orbital magnetization related:
   ORBITALMAG=     F  switch on orbital magnetization
   LCHIMAG   =     F  perturbation theory with respect to B field
   DQ        =  0.001000  dq finite difference perturbation B field
   LLRAUG    =     F  two centre corrections for induced B field



--------------------------------------------------------------------------------------------------------


 Static calculation
 charge density and potential will be updated during run
 non-spin polarized calculation
 Variant of blocked Davidson
 Davidson routine will perform the subspace rotation
 perform sub-space diagonalisation
    after iterative eigenvector-optimisation
 modified Broyden-mixing scheme, WC =      100.0
 initial mixing is a Kerker type mixing with AMIX =  0.4000 and BMIX =      1.0000
 Hartree-type preconditioning will be used
 using additional bands           22
 reciprocal scheme for non local part
 use partial core corrections
 calculate Harris-corrections to forces 
   (improved forces if not selfconsistent)
 use gradient corrections 
 use of overlap-Matrix (Vanderbilt PP)
 Gauss-broadening in eV      SIGMA  =   0.02


--------------------------------------------------------------------------------------------------------


  energy-cutoff  :      250.00
  volume of cell :      284.89
      direct lattice vectors                 reciprocal lattice vectors
     6.580000000  0.000000000  0.000000000     0.151975684  0.000000000  0.000000000
     0.000000000  6.580000000  0.000000000     0.000000000  0.151975684  0.000000000
     0.000000000  0.000000000  6.580000000     0.000000000  0.000000000  0.151975684

  length of vectors
     6.580000000  6.580000000  6.580000000     0.151975684  0.151975684  0.151975684


 
 k-points in units of 2pi/SCALE and weight: K-Spacing Value to Generate K-Mesh: 0.03
   0.00000000  0.00000000  0.00000000       0.008
   0.03039514  0.00000000  0.00000000       0.016
   0.00000000  0.03039514  0.00000000       0.016
   0.00000000  0.00000000  0.03039514       0.016
   0.06079027  0.00000000  0.00000000       0.016
   0.00000000  0.06079027  0.00000000       0.016
   0.00000000  0.00000000  0.06079027       0.016
   0.03039514  0.03039514  0.00000000       0.016
   0.00000000  0.03039514  0.03039514       0.016
   0.03039514  0.00000000  0.03039514       0.016
  -0.03039514  0.03039514  0.00000000       0.016
  -0.03039514  0.00000000  0.03039514       0.016
   0.00000000 -0.03039514  0.03039514       0.016
   0.06079027  0.03039514  0.00000000       0.016
   0.00000000  0.06079027  0.03039514       0.016
   0.03039514  0.00000000  0.06079027       0.016
  -0.03039514  0.06079027  0.00000000       0.016
  -0.06079027  0.00000000  0.03039514       0.016
   0.00000000  0.03039514  0.06079027       0.016
   0.00000000 -0.06079027  0.03039514       0.016
  -0.03039514  0.00000000  0.06079027       0.016
   0.06079027  0.00000000  0.03039514       0.016
   0.00000000 -0.03039514  0.06079027       0.016
   0.06079027 -0.03039514  0.00000000       0.016
   0.03039514  0.06079027  0.00000000       0.016
   0.06079027  0.06079027  0.00000000       0.016
   0.00000000  0.06079027  0.06079027       0.016
   0.06079027  0.00000000  0.06079027       0.016
  -0.06079027  0.06079027  0.00000000       0.016
  -0.06079027  0.00000000  0.06079027       0.016
   0.00000000 -0.06079027  0.06079027       0.016
   0.03039514  0.03039514  0.03039514       0.016
  -0.03039514  0.03039514  0.03039514       0.016
  -0.03039514 -0.03039514  0.03039514       0.016
   0.03039514 -0.03039514  0.03039514       0.016
   0.06079027  0.03039514  0.03039514       0.016
   0.03039514  0.06079027  0.03039514       0.016
   0.03039514  0.03039514  0.06079027       0.016
  -0.03039514  0.06079027  0.03039514       0.016
  -0.06079027  0.03039514  0.03039514       0.016
  -0.03039514  0.03039514  0.06079027       0.016
  -0.06079027 -0.03039514  0.03039514       0.016
  -0.03039514 -0.06079027  0.03039514       0.016
  -0.03039514 -0.03039514  0.06079027       0.016
   0.03039514 -0.06079027  0.03039514       0.016
   0.06079027 -0.03039514  0.03039514       0.016
   0.03039514 -0.03039514  0.06079027       0.016
   0.06079027  0.06079027  0.03039514       0.016
   0.03039514  0.06079027  0.06079027       0.016
   0.06079027  0.03039514  0.06079027       0.016
  -0.06079027  0.06079027  0.03039514       0.016
  -0.06079027  0.03039514  0.06079027       0.016
  -0.03039514  0.06079027  0.06079027       0.016
  -0.06079027 -0.06079027  0.03039514       0.016
  -0.03039514 -0.06079027  0.06079027       0.016
  -0.06079027 -0.03039514  0.06079027       0.016
   0.06079027 -0.06079027  0.03039514       0.016
   0.06079027 -0.03039514  0.06079027       0.016
   0.03039514 -0.06079027  0.06079027       0.016
   0.06079027  0.06079027  0.06079027       0.016
  -0.06079027  0.06079027  0.06079027       0.016
  -0.06079027 -0.06079027  0.06079027       0.016
   0.06079027 -0.06079027  0.06079027       0.016
 
 k-points in reciprocal lattice and weights: K-Spacing Value to Generate K-Mesh: 0.03
   0.00000000  0.00000000  0.00000000       0.008
   0.20000000  0.00000000  0.00000000       0.016
   0.00000000  0.20000000  0.00000000       0.016
   0.00000000  0.00000000  0.20000000       0.016
   0.40000000  0.00000000  0.00000000       0.016
   0.00000000  0.40000000  0.00000000       0.016
   0.00000000  0.00000000  0.40000000       0.016
   0.20000000  0.20000000  0.00000000       0.016
   0.00000000  0.20000000  0.20000000       0.016
   0.20000000  0.00000000  0.20000000       0.016
  -0.20000000  0.20000000  0.00000000       0.016
  -0.20000000  0.00000000  0.20000000       0.016
   0.00000000 -0.20000000  0.20000000       0.016
   0.40000000  0.20000000  0.00000000       0.016
   0.00000000  0.40000000  0.20000000       0.016
   0.20000000  0.00000000  0.40000000       0.016
  -0.20000000  0.40000000  0.00000000       0.016
  -0.40000000  0.00000000  0.20000000       0.016
   0.00000000  0.20000000  0.40000000       0.016
   0.00000000 -0.40000000  0.20000000       0.016
  -0.20000000  0.00000000  0.40000000       0.016
   0.40000000  0.00000000  0.20000000       0.016
   0.00000000 -0.20000000  0.40000000       0.016
   0.40000000 -0.20000000  0.00000000       0.016
   0.20000000  0.40000000  0.00000000       0.016
   0.40000000  0.40000000  0.00000000       0.016
   0.00000000  0.40000000  0.40000000       0.016
   0.40000000  0.00000000  0.40000000       0.016
  -0.40000000  0.40000000  0.00000000       0.016
  -0.40000000  0.00000000  0.40000000       0.016
   0.00000000 -0.40000000  0.40000000       0.016
   0.20000000  0.20000000  0.20000000       0.016
  -0.20000000  0.20000000  0.20000000       0.016
  -0.20000000 -0.20000000  0.20000000       0.016
   0.20000000 -0.20000000  0.20000000       0.016
   0.40000000  0.20000000  0.20000000       0.016
   0.20000000  0.40000000  0.20000000       0.016
   0.20000000  0.20000000  0.40000000       0.016
  -0.20000000  0.40000000  0.20000000       0.016
  -0.40000000  0.20000000  0.20000000       0.016
  -0.20000000  0.20000000  0.40000000       0.016
  -0.40000000 -0.20000000  0.20000000       0.016
  -0.20000000 -0.40000000  0.20000000       0.016
  -0.20000000 -0.20000000  0.40000000       0.016
   0.20000000 -0.40000000  0.20000000       0.016
   0.40000000 -0.20000000  0.20000000       0.016
   0.20000000 -0.20000000  0.40000000       0.016
   0.40000000  0.40000000  0.20000000       0.016
   0.20000000  0.40000000  0.40000000       0.016
   0.40000000  0.20000000  0.40000000       0.016
  -0.40000000  0.40000000  0.20000000       0.016
  -0.40000000  0.20000000  0.40000000       0.016
  -0.20000000  0.40000000  0.40000000       0.016
  -0.40000000 -0.40000000  0.20000000       0.016
  -0.20000000 -0.40000000  0.40000000       0.016
  -0.40000000 -0.20000000  0.40000000       0.016
   0.40000000 -0.40000000  0.20000000       0.016
   0.40000000 -0.20000000  0.40000000       0.016
   0.20000000 -0.40000000  0.40000000       0.016
   0.40000000  0.40000000  0.40000000       0.016
  -0.40000000  0.40000000  0.40000000       0.016
  -0.40000000 -0.40000000  0.40000000       0.016
   0.40000000 -0.40000000  0.40000000       0.016
 
 position of ions in fractional coordinates (direct lattice) 
   0.50000000  0.00000000  0.00000000
   0.25000000  0.25000000  0.25000000
   0.75000000  0.25000000  0.75000000
   0.00000000  0.00000000  0.50000000
   0.75000000  0.75000000  0.25000000
   0.25000000  0.25000000  0.75000000
   0.00000000  0.50000000  0.50000000
   0.25000000  0.75000000  0.25000000
   0.00000000  0.00000000  0.00000000
   0.00000000  0.50000000  0.00000000
   0.50000000  0.50000000  0.50000000
   0.75000000  0.75000000  0.75000000
   0.25000000  0.75000000  0.75000000
   0.50000000  0.00000000  0.50000000
   0.50000000  0.50000000  0.00000000
   0.75000000  0.25000000  0.25000000
 
 position of ions in cartesian coordinates  (Angst):
   3.29000000  0.00000000  0.00000000
   1.64500000  1.64500000  1.64500000
   4.93500000  1.64500000  4.93500000
   0.00000000  0.00000000  3.29000000
   4.93500000  4.93500000  1.64500000
   1.64500000  1.64500000  4.93500000
   0.00000000  3.29000000  3.29000000
   1.64500000  4.93500000  1.64500000
   0.00000000  0.00000000  0.00000000
   0.00000000  3.29000000  0.00000000
   3.29000000  3.29000000  3.29000000
   4.93500000  4.93500000  4.93500000
   1.64500000  4.93500000  4.93500000
   3.29000000  0.00000000  3.29000000
   3.29000000  3.29000000  0.00000000
   4.93500000  1.64500000  1.64500000
 


--------------------------------------------------------------------------------------------------------


 k-point   1 :   0.0000 0.0000 0.0000  plane waves:    2517
 k-point   2 :   0.2000 0.0000 0.0000  plane waves:    2545
 k-point   3 :   0.0000 0.2000 0.0000  plane waves:    2545
 k-point   4 :   0.0000 0.0000 0.2000  plane waves:    2545
 k-point   5 :   0.4000 0.0000 0.0000  plane waves:    2569
 k-point   6 :   0.0000 0.4000 0.0000  plane waves:    2569
 k-point   7 :   0.0000 0.0000 0.4000  plane waves:    2569
 k-point   8 :   0.2000 0.2000 0.0000  plane waves:    2562
 k-point   9 :   0.0000 0.2000 0.2000  plane waves:    2562
 k-point  10 :   0.2000 0.0000 0.2000  plane waves:    2562
 k-point  11 :  -0.2000 0.2000 0.0000  plane waves:    2562
 k-point  12 :  -0.2000 0.0000 0.2000  plane waves:    2562
 k-point  13 :   0.0000-0.2000 0.2000  plane waves:    2562
 k-point  14 :   0.4000 0.2000 0.0000  plane waves:    2566
 k-point  15 :   0.0000 0.4000 0.2000  plane waves:    2566
 k-point  16 :   0.2000 0.0000 0.4000  plane waves:    2566
 k-point  17 :  -0.2000 0.4000 0.0000  plane waves:    2566
 k-point  18 :  -0.4000 0.0000 0.2000  plane waves:    2566
 k-point  19 :   0.0000 0.2000 0.4000  plane waves:    2566
 k-point  20 :   0.0000-0.4000 0.2000  plane waves:    2566
 k-point  21 :  -0.2000 0.0000 0.4000  plane waves:    2566
 k-point  22 :   0.4000 0.0000 0.2000  plane waves:    2566
 k-point  23 :   0.0000-0.2000 0.4000  plane waves:    2566
 k-point  24 :   0.4000-0.2000 0.0000  plane waves:    2566
 k-point  25 :   0.2000 0.4000 0.0000  plane waves:    2566
 k-point  26 :   0.4000 0.4000 0.0000  plane waves:    2570
 k-point  27 :   0.0000 0.4000 0.4000  plane waves:    2570
 k-point  28 :   0.4000 0.0000 0.4000  plane waves:    2570
 k-point  29 :  -0.4000 0.4000 0.0000  plane waves:    2570
 k-point  30 :  -0.4000 0.0000 0.4000  plane waves:    2570
 k-point  31 :   0.0000-0.4000 0.4000  plane waves:    2570
 k-point  32 :   0.2000 0.2000 0.2000  plane waves:    2572
 k-point  33 :  -0.2000 0.2000 0.2000  plane waves:    2572
 k-point  34 :  -0.2000-0.2000 0.2000  plane waves:    2572
 k-point  35 :   0.2000-0.2000 0.2000  plane waves:    2572
 k-point  36 :   0.4000 0.2000 0.2000  plane waves:    2546
 k-point  37 :   0.2000 0.4000 0.2000  plane waves:    2546
 k-point  38 :   0.2000 0.2000 0.4000  plane waves:    2546
 k-point  39 :  -0.2000 0.4000 0.2000  plane waves:    2546
 k-point  40 :  -0.4000 0.2000 0.2000  plane waves:    2546
 k-point  41 :  -0.2000 0.2000 0.4000  plane waves:    2546
 k-point  42 :  -0.4000-0.2000 0.2000  plane waves:    2546
 k-point  43 :  -0.2000-0.4000 0.2000  plane waves:    2546
 k-point  44 :  -0.2000-0.2000 0.4000  plane waves:    2546
 k-point  45 :   0.2000-0.4000 0.2000  plane waves:    2546
 k-point  46 :   0.4000-0.2000 0.2000  plane waves:    2546
 k-point  47 :   0.2000-0.2000 0.4000  plane waves:    2546
 k-point  48 :   0.4000 0.4000 0.2000  plane waves:    2549
 k-point  49 :   0.2000 0.4000 0.4000  plane waves:    2549
 k-point  50 :   0.4000 0.2000 0.4000  plane waves:    2549
 k-point  51 :  -0.4000 0.4000 0.2000  plane waves:    2549
 k-point  52 :  -0.4000 0.2000 0.4000  plane waves:    2549
 k-point  53 :  -0.2000 0.4000 0.4000  plane waves:    2549
 k-point  54 :  -0.4000-0.4000 0.2000  plane waves:    2549
 k-point  55 :  -0.2000-0.4000 0.4000  plane waves:    2549
 k-point  56 :  -0.4000-0.2000 0.4000  plane waves:    2549
 k-point  57 :   0.4000-0.4000 0.2000  plane waves:    2549
 k-point  58 :   0.4000-0.2000 0.4000  plane waves:    2549
 k-point  59 :   0.2000-0.4000 0.4000  plane waves:    2549
 k-point  60 :   0.4000 0.4000 0.4000  plane waves:    2533
 k-point  61 :  -0.4000 0.4000 0.4000  plane waves:    2533
 k-point  62 :  -0.4000-0.4000 0.4000  plane waves:    2533
 k-point  63 :   0.4000-0.4000 0.4000  plane waves:    2533

 maximum and minimum number of plane-waves per node :       235      194

 maximum number of plane-waves:      2572
 maximum index in each direction: 
   IXMAX=    8   IYMAX=    8   IZMAX=    8
   IXMIN=   -8   IYMIN=   -8   IZMIN=   -8


 parallel 3D FFT for wavefunctions:
    minimum data exchange during FFTs selected (reduces bandwidth)
 parallel 3D FFT for charge:
    minimum data exchange during FFTs selected (reduces bandwidth)


 total amount of memory used by VASP MPI-rank0    48253. kBytes
=======================================================================

   base      :      30000. kBytes
   nonl-proj :       8332. kBytes
   fftplans  :        456. kBytes
   grid      :        919. kBytes
   one-center:         31. kBytes
   wavefun   :       8515. kBytes
 
     INWAV:  cpu time      0.0000: real time      0.0001
 Broyden mixing: mesh for mixing (old mesh)
   NGX = 17   NGY = 17   NGZ = 17
  (NGX  = 72   NGY  = 72   NGZ  = 72)
  gives a total of   4913 points

 initial charge density was supplied:
 charge density of overlapping atoms calculated
 number of electron     211.0000000 magnetization 
 keeping initial charge density in first step


--------------------------------------------------------------------------------------------------------


 Maximum index for augmentation-charges          517 (set IRDMAX)


--------------------------------------------------------------------------------------------------------


 First call to EWALD:  gamma=   0.269
 Maximum number of real-space cells 3x 3x 3
 Maximum number of reciprocal cells 3x 3x 3

    FEWALD:  cpu time      0.0012: real time      0.0012


--------------------------------------- Iteration      1(   1)  ---------------------------------------


    POTLOK:  cpu time      0.0124: real time      0.0184
    SETDIJ:  cpu time      0.0024: real time      0.0025
     EDDAV:  cpu time      3.2933: real time      3.4014
       DOS:  cpu time      0.0049: real time      0.0049
    --------------------------------------------
      LOOP:  cpu time      3.3130: real time      3.4271

 eigenvalue-minimisations  : 16680
 total energy-change (2. order) : 0.2040928E+04  (-0.8225349E+04)
 number of electron     211.0000000 magnetization 
 augmentation part      211.0000000 magnetization 

 Free energy of the ion-electron system (eV)
  ---------------------------------------------------
  alpha Z        PSCENC =      1855.51383713
  Ewald energy   TEWEN  =    -22209.69398865
  -Hartree energ DENC   =     -4183.73651977
  -exchange      EXHF   =         0.00000000
  -V(xc)+E(xc)   XCENC  =       840.89014396
  PAW double counting   =     20672.27205594   -20355.97568448
  entropy T*S    EENTRO =        -0.00097040
  eigenvalues    EBANDS =      -719.37097936
  atomic energy  EATOM  =     26141.03026504
  Solvation  Ediel_sol  =         0.00000000
  ---------------------------------------------------
  free energy    TOTEN  =      2040.92815942 eV

  energy without entropy =     2040.92912981  energy(sigma->0) =     2040.92864462


--------------------------------------------------------------------------------------------------------




--------------------------------------- Iteration      1(   2)  ---------------------------------------


     EDDAV:  cpu time      3.1551: real time      3.1688
       DOS:  cpu time      0.0049: real time      0.0049
    --------------------------------------------
      LOOP:  cpu time      3.1600: real time      3.1738

 eigenvalue-minimisations  : 16496
 total energy-change (2. order) :-0.2050699E+04  (-0.1987255E+04)
 number of electron     211.0000000 magnetization 
 augmentation part      211.0000000 magnetization 

 Free energy of the ion-electron system (eV)
  ---------------------------------------------------
  alpha Z        PSCENC =      1855.51383713
  Ewald energy   TEWEN  =    -22209.69398865
  -Hartree energ DENC   =     -4183.73651977
  -exchange      EXHF   =         0.00000000
  -V(xc)+E(xc)   XCENC  =       840.89014396
  PAW double counting   =     20672.27205594   -20355.97568448
  entropy T*S    EENTRO =        -0.00136805
  eigenvalues    EBANDS =     -2770.06976171
  atomic energy  EATOM  =     26141.03026504
  Solvation  Ediel_sol  =         0.00000000
  ---------------------------------------------------
  free energy    TOTEN  =        -9.77102059 eV

  energy without entropy =       -9.76965253  energy(sigma->0) =       -9.77033656


--------------------------------------------------------------------------------------------------------




--------------------------------------- Iteration      1(   3)  ---------------------------------------


     EDDAV:  cpu time      4.1778: real time      4.1950
       DOS:  cpu time      0.0054: real time      0.0055
    --------------------------------------------
      LOOP:  cpu time      4.1832: real time      4.2005

 eigenvalue-minimisations  : 23848
 total energy-change (2. order) :-0.1756319E+03  (-0.1656555E+03)
 number of electron     211.0000000 magnetization 
 augmentation part      211.0000000 magnetization 

 Free energy of the ion-electron system (eV)
  ---------------------------------------------------
  alpha Z        PSCENC =      1855.51383713
  Ewald energy   TEWEN  =    -22209.69398865
  -Hartree energ DENC   =     -4183.73651977
  -exchange      EXHF   =         0.00000000
  -V(xc)+E(xc)   XCENC  =       840.89014396
  PAW double counting   =     20672.27205594   -20355.97568448
  entropy T*S    EENTRO =        -0.00206539
  eigenvalues    EBANDS =     -2945.70096731
  atomic energy  EATOM  =     26141.03026504
  Solvation  Ediel_sol  =         0.00000000
  ---------------------------------------------------
  free energy    TOTEN  =      -185.40292352 eV

  energy without entropy =     -185.40085813  energy(sigma->0) =     -185.40189082


--------------------------------------------------------------------------------------------------------




--------------------------------------- Iteration      1(   4)  ---------------------------------------


     EDDAV:  cpu time      4.1525: real time      4.1700
       DOS:  cpu time      0.0048: real time      0.0048
    --------------------------------------------
      LOOP:  cpu time      4.1573: real time      4.1748

 eigenvalue-minimisations  : 23568
 total energy-change (2. order) :-0.1121109E+02  (-0.1091154E+02)
 number of electron     211.0000000 magnetization 
 augmentation part      211.0000000 magnetization 

 Free energy of the ion-electron system (eV)
  ---------------------------------------------------
  alpha Z        PSCENC =      1855.51383713
  Ewald energy   TEWEN  =    -22209.69398865
  -Hartree energ DENC   =     -4183.73651977
  -exchange      EXHF   =         0.00000000
  -V(xc)+E(xc)   XCENC  =       840.89014396
  PAW double counting   =     20672.27205594   -20355.97568448
  entropy T*S    EENTRO =        -0.00111654
  eigenvalues    EBANDS =     -2956.91300941
  atomic energy  EATOM  =     26141.03026504
  Solvation  Ediel_sol  =         0.00000000
  ---------------------------------------------------
  free energy    TOTEN  =      -196.61401678 eV

  energy without entropy =     -196.61290024  energy(sigma->0) =     -196.61345851


--------------------------------------------------------------------------------------------------------




--------------------------------------- Iteration      1(   5)  ---------------------------------------


     EDDAV:  cpu time      4.5222: real time      4.5440
       DOS:  cpu time      0.0043: real time      0.0043
    CHARGE:  cpu time      0.0862: real time      0.0865
    MIXING:  cpu time      0.0003: real time      0.0003
    --------------------------------------------
      LOOP:  cpu time      4.6129: real time      4.6350

 eigenvalue-minimisations  : 25816
 total energy-change (2. order) :-0.6990917E+00  (-0.6943712E+00)
 number of electron     210.9999846 magnetization 
 augmentation part       45.8695497 magnetization 

 Broyden mixing:
  rms(total) = 0.54996E+01    rms(broyden)= 0.54986E+01
  rms(prec ) = 0.60449E+01
  weight for this iteration     100.00

 Free energy of the ion-electron system (eV)
  ---------------------------------------------------
  alpha Z        PSCENC =      1855.51383713
  Ewald energy   TEWEN  =    -22209.69398865
  -Hartree energ DENC   =     -4183.73651977
  -exchange      EXHF   =         0.00000000
  -V(xc)+E(xc)   XCENC  =       840.89014396
  PAW double counting   =     20672.27205594   -20355.97568448
  entropy T*S    EENTRO =        -0.00104411
  eigenvalues    EBANDS =     -2957.61217353
  atomic energy  EATOM  =     26141.03026504
  Solvation  Ediel_sol  =         0.00000000
  ---------------------------------------------------
  free energy    TOTEN  =      -197.31310846 eV

  energy without entropy =     -197.31206435  energy(sigma->0) =     -197.31258640


--------------------------------------------------------------------------------------------------------




--------------------------------------- Iteration      1(   6)  ---------------------------------------


    POTLOK:  cpu time      0.0049: real time      0.0050
    SETDIJ:  cpu time      0.0020: real time      0.0020
     EDDAV:  cpu time      3.5401: real time      3.5547
       DOS:  cpu time      0.0043: real time      0.0043
    CHARGE:  cpu time      0.0860: real time      0.0863
    MIXING:  cpu time      0.0003: real time      0.0003
    --------------------------------------------
      LOOP:  cpu time      3.6375: real time      3.6527

 eigenvalue-minimisations  : 19344
 total energy-change (2. order) : 0.7768574E+01  (-0.2216396E+01)
 number of electron     210.9999837 magnetization 
 augmentation part       47.5630575 magnetization 

 Broyden mixing:
  rms(total) = 0.20113E+01    rms(broyden)= 0.20111E+01
  rms(prec ) = 0.24936E+01
  weight for this iteration     100.00

 eigenvalues of (default mixing * dielectric matrix)
  average eigenvalue GAMMA=   1.4545
  1.4545

 Free energy of the ion-electron system (eV)
  ---------------------------------------------------
  alpha Z        PSCENC =      1855.51383713
  Ewald energy   TEWEN  =    -22209.69398865
  -Hartree energ DENC   =     -3951.86516276
  -exchange      EXHF   =         0.00000000
  -V(xc)+E(xc)   XCENC  =       829.60146423
  PAW double counting   =     24594.51632145   -24308.19804835
  entropy T*S    EENTRO =        -0.00236783
  eigenvalues    EBANDS =     -3140.44685497
  atomic energy  EATOM  =     26141.03026504
  Solvation  Ediel_sol  =         0.00000000
  ---------------------------------------------------
  free energy    TOTEN  =      -189.54453469 eV

  energy without entropy =     -189.54216686  energy(sigma->0) =     -189.54335077


--------------------------------------------------------------------------------------------------------




--------------------------------------- Iteration      1(   7)  ---------------------------------------


    POTLOK:  cpu time      0.0049: real time      0.0051
    SETDIJ:  cpu time      0.0017: real time      0.0017
     EDDAV:  cpu time      4.0563: real time      4.0733
       DOS:  cpu time      0.0048: real time      0.0048
    CHARGE:  cpu time      0.0898: real time      0.0902
    MIXING:  cpu time      0.0003: real time      0.0003
    --------------------------------------------
      LOOP:  cpu time      4.1578: real time      4.1754

 eigenvalue-minimisations  : 23112
 total energy-change (2. order) : 0.2103369E+00  (-0.1690028E+01)
 number of electron     210.9999843 magnetization 
 augmentation part       47.5053795 magnetization 

 Broyden mixing:
  rms(total) = 0.10243E+01    rms(broyden)= 0.10240E+01
  rms(prec ) = 0.22779E+01
  weight for this iteration     100.00

 eigenvalues of (default mixing * dielectric matrix)
  average eigenvalue GAMMA=   1.0819
  1.6014  0.5624

 Free energy of the ion-electron system (eV)
  ---------------------------------------------------
  alpha Z        PSCENC =      1855.51383713
  Ewald energy   TEWEN  =    -22209.69398865
  -Hartree energ DENC   =     -3877.54942394
  -exchange      EXHF   =         0.00000000
  -V(xc)+E(xc)   XCENC  =       825.38984187
  PAW double counting   =     27023.26736333   -26748.89380702
  entropy T*S    EENTRO =        -0.00286901
  eigenvalues    EBANDS =     -3198.39541654
  atomic energy  EATOM  =     26141.03026504
  Solvation  Ediel_sol  =         0.00000000
  ---------------------------------------------------
  free energy    TOTEN  =      -189.33419779 eV

  energy without entropy =     -189.33132878  energy(sigma->0) =     -189.33276328


--------------------------------------------------------------------------------------------------------




--------------------------------------- Iteration      1(   8)  ---------------------------------------


    POTLOK:  cpu time      0.0046: real time      0.0048
    SETDIJ:  cpu time      0.0017: real time      0.0017
     EDDAV:  cpu time      3.6746: real time      3.6900
       DOS:  cpu time      0.0049: real time      0.0049
    CHARGE:  cpu time      0.0858: real time      0.0861
    MIXING:  cpu time      0.0003: real time      0.0003
    --------------------------------------------
      LOOP:  cpu time      3.7719: real time      3.7878

 eigenvalue-minimisations  : 20288
 total energy-change (2. order) : 0.1935935E+01  (-0.7813370E+00)
 number of electron     210.9999839 magnetization 
 augmentation part       47.9631555 magnetization 

 Broyden mixing:
  rms(total) = 0.37732E+00    rms(broyden)= 0.37676E+00
  rms(prec ) = 0.58755E+00
  weight for this iteration     100.00

 eigenvalues of (default mixing * dielectric matrix)
  average eigenvalue GAMMA=   1.0793
  1.6732  1.1179  0.4469

 Free energy of the ion-electron system (eV)
  ---------------------------------------------------
  alpha Z        PSCENC =      1855.51383713
  Ewald energy   TEWEN  =    -22209.69398865
  -Hartree energ DENC   =     -3834.93558956
  -exchange      EXHF   =         0.00000000
  -V(xc)+E(xc)   XCENC  =       823.54942027
  PAW double counting   =     27874.17287899   -27605.40625742
  entropy T*S    EENTRO =        -0.00336652
  eigenvalues    EBANDS =     -3231.62546232
  atomic energy  EATOM  =     26141.03026504
  Solvation  Ediel_sol  =         0.00000000
  ---------------------------------------------------
  free energy    TOTEN  =      -187.39826303 eV

  energy without entropy =     -187.39489651  energy(sigma->0) =     -187.39657977


--------------------------------------------------------------------------------------------------------




--------------------------------------- Iteration      1(   9)  ---------------------------------------


    POTLOK:  cpu time      0.0046: real time      0.0047
    SETDIJ:  cpu time      0.0018: real time      0.0018
     EDDAV:  cpu time      4.0343: real time      4.0529
       DOS:  cpu time      0.0054: real time      0.0055
    CHARGE:  cpu time      0.0879: real time      0.0882
    MIXING:  cpu time      0.0003: real time      0.0003
    --------------------------------------------
      LOOP:  cpu time      4.1343: real time      4.1534

 eigenvalue-minimisations  : 21752
 total energy-change (2. order) :-0.1714257E-01  (-0.1265521E+00)
 number of electron     210.9999840 magnetization 
 augmentation part       48.0018499 magnetization 

 Broyden mixing:
  rms(total) = 0.30353E+00    rms(broyden)= 0.30348E+00
  rms(prec ) = 0.43694E+00
  weight for this iteration     100.00

 eigenvalues of (default mixing * dielectric matrix)
  average eigenvalue GAMMA=   1.1473
  1.8726  1.7882  0.5411  0.3874

 Free energy of the ion-electron system (eV)
  ---------------------------------------------------
  alpha Z        PSCENC =      1855.51383713
  Ewald energy   TEWEN  =    -22209.69398865
  -Hartree energ DENC   =     -3831.40263975
  -exchange      EXHF   =         0.00000000
  -V(xc)+E(xc)   XCENC  =       823.40717500
  PAW double counting   =     28088.95118668   -27820.19109794
  entropy T*S    EENTRO =        -0.00284988
  eigenvalues    EBANDS =     -3235.02729324
  atomic energy  EATOM  =     26141.03026504
  Solvation  Ediel_sol  =         0.00000000
  ---------------------------------------------------
  free energy    TOTEN  =      -187.41540560 eV

  energy without entropy =     -187.41255572  energy(sigma->0) =     -187.41398066


--------------------------------------------------------------------------------------------------------




--------------------------------------- Iteration      1(  10)  ---------------------------------------


    POTLOK:  cpu time      0.0046: real time      0.0047
    SETDIJ:  cpu time      0.0017: real time      0.0017
     EDDAV:  cpu time      3.7747: real time      3.7903
       DOS:  cpu time      0.0048: real time      0.0048
    CHARGE:  cpu time      0.0856: real time      0.0859
    MIXING:  cpu time      0.0003: real time      0.0003
    --------------------------------------------
      LOOP:  cpu time      3.8717: real time      3.8877

 eigenvalue-minimisations  : 21120
 total energy-change (2. order) : 0.2914639E-01  (-0.2980440E-01)
 number of electron     210.9999841 magnetization 
 augmentation part       47.9404308 magnetization 

 Broyden mixing:
  rms(total) = 0.13319E+00    rms(broyden)= 0.13315E+00
  rms(prec ) = 0.22409E+00
  weight for this iteration     100.00

 eigenvalues of (default mixing * dielectric matrix)
  average eigenvalue GAMMA=   1.1667
  2.4871  1.7252  0.8171  0.4276  0.3764

 Free energy of the ion-electron system (eV)
  ---------------------------------------------------
  alpha Z        PSCENC =      1855.51383713
  Ewald energy   TEWEN  =    -22209.69398865
  -Hartree energ DENC   =     -3833.27555797
  -exchange      EXHF   =         0.00000000
  -V(xc)+E(xc)   XCENC  =       823.47162184
  PAW double counting   =     28284.78290591   -28014.93490499
  entropy T*S    EENTRO =        -0.00285604
  eigenvalues    EBANDS =     -3234.27758149
  atomic energy  EATOM  =     26141.03026504
  Solvation  Ediel_sol  =         0.00000000
  ---------------------------------------------------
  free energy    TOTEN  =      -187.38625921 eV

  energy without entropy =     -187.38340317  energy(sigma->0) =     -187.38483119


--------------------------------------------------------------------------------------------------------




--------------------------------------- Iteration      1(  11)  ---------------------------------------


    POTLOK:  cpu time      0.0046: real time      0.0047
    SETDIJ:  cpu time      0.0018: real time      0.0018
     EDDAV:  cpu time      3.7635: real time      3.7796
       DOS:  cpu time      0.0054: real time      0.0054
    CHARGE:  cpu time      0.0879: real time      0.0882
    MIXING:  cpu time      0.0003: real time      0.0003
    --------------------------------------------
      LOOP:  cpu time      3.8634: real time      3.8800

 eigenvalue-minimisations  : 21072
 total energy-change (2. order) : 0.4918675E-02  (-0.1139520E-01)
 number of electron     210.9999841 magnetization 
 augmentation part       47.9131667 magnetization 

 Broyden mixing:
  rms(total) = 0.46582E-01    rms(broyden)= 0.46512E-01
  rms(prec ) = 0.12787E+00
  weight for this iteration     100.00

 eigenvalues of (default mixing * dielectric matrix)
  average eigenvalue GAMMA=   1.0621
  2.4961  1.7038  0.8784  0.4672  0.4672  0.3599

 Free energy of the ion-electron system (eV)
  ---------------------------------------------------
  alpha Z        PSCENC =      1855.51383713
  Ewald energy   TEWEN  =    -22209.69398865
  -Hartree energ DENC   =     -3834.95003494
  -exchange      EXHF   =         0.00000000
  -V(xc)+E(xc)   XCENC  =       823.54423711
  PAW double counting   =     28381.50091020   -28110.66770403
  entropy T*S    EENTRO =        -0.00320679
  eigenvalues    EBANDS =     -3233.65565562
  atomic energy  EATOM  =     26141.03026504
  Solvation  Ediel_sol  =         0.00000000
  ---------------------------------------------------
  free energy    TOTEN  =      -187.38134054 eV

  energy without entropy =     -187.37813375  energy(sigma->0) =     -187.37973714


--------------------------------------------------------------------------------------------------------




--------------------------------------- Iteration      1(  12)  ---------------------------------------


    POTLOK:  cpu time      0.0046: real time      0.0047
    SETDIJ:  cpu time      0.0017: real time      0.0018
     EDDAV:  cpu time      3.7759: real time      3.7917
       DOS:  cpu time      0.0046: real time      0.0046
    CHARGE:  cpu time      0.0860: real time      0.0862
    MIXING:  cpu time      0.0003: real time      0.0003
    --------------------------------------------
      LOOP:  cpu time      3.8730: real time      3.8892

[...]
     33     -25.3783      2.00000
     34     -25.3639      2.00000
     35     -25.3337      2.00000
     36     -25.3244      2.00000
     37     -25.3118      2.00000
     38     -25.2790      2.00000
     39     -25.2536      2.00000
     40     -25.0975      2.00000
     41     -24.6752      2.00000
     42     -24.6035      2.00000
     43     -24.4769      2.00000
     44     -24.4437      2.00000
     45     -24.4200      2.00000
     46     -24.4028      2.00000
     47     -24.3603      2.00000
     48     -24.2617      2.00000
     49     -24.1963      2.00000
     50     -21.3897      2.00000
     51     -21.3681      2.00000
     52     -21.3122      2.00000
     53     -21.2143      2.00000
     54     -21.1519      2.00000
     55     -21.1054      2.00000
     56     -21.0354      2.00000
     57     -21.0169      2.00000
     58     -20.9575      2.00000
     59     -20.8761      2.00000
     60     -20.8281      2.00000
     61     -20.7978      2.00000
     62       3.8313      2.00000
     63       4.2708      2.00000
     64       4.6177      2.00000
     65       4.8704      2.00000
     66       5.0340      2.00000
     67       5.3942      2.00000
     68       5.7670      2.00000
     69       6.1204      2.00000
     70       6.5128      2.00000
     71       6.5458      2.00000
     72       6.5664      2.00000
     73       6.6262      2.00000
     74       6.6606      2.00000
     75       6.7604      2.00000
     76       6.8239      2.00000
     77       6.8475      2.00000
     78       6.9118      2.00000
     79       6.9427      2.00000
     80       6.9825      2.00000
     81       7.0159      2.00000
     82       7.3068      2.00000
     83       7.3360      2.00000
     84       7.4032      2.00000
     85       7.4713      2.00000
     86       7.4898      2.00000
     87       7.5376      2.00000
     88       7.5536      2.00000
     89       7.5782      2.00000
     90       7.6148      2.00000
     91       7.6701      2.00000
     92       7.6822      2.00000
     93       7.7323      2.00000
     94       7.7647      2.00000
     95       7.7869      2.00000
     96       7.8052      2.00000
     97       7.8549      2.00000
     98       7.8829      2.00000
     99       7.9081      2.00000
    100       7.9259      2.00000
    101       7.9816      2.00000
    102       8.0101      2.00000
    103       8.0436      2.00000
    104       8.0856      2.00000
    105       8.1263      2.00000
    106       8.1921      2.00000
    107       8.2532      2.00000
    108       8.3291      2.00000
    109       8.6597      2.00000
    110      11.3336      0.00000
    111      11.4185      0.00000
    112      11.4631      0.00000
    113      11.5517      0.00000
    114      11.5962      0.00000
    115      11.6721      0.00000
    116      11.7354      0.00000
    117      11.7774      0.00000
    118      11.8577      0.00000
    119      11.9035      0.00000
    120      11.9456      0.00000
    121      11.9897      0.00000
    122      12.0703      0.00000
    123      12.1491      0.00000
    124      12.2179      0.00000
    125      12.2589      0.00000
    126      12.3310      0.00000
    127      12.3979      0.00000
    128      12.4935      0.00000

 k-point    63 :       0.4000   -0.4000    0.4000
  band No.  band energies     occupation 
      1     -64.3072      2.00000
      2     -64.2885      2.00000
      3     -64.2718      2.00000
      4     -64.2406      2.00000
      5     -64.2169      2.00000
      6     -64.1857      2.00000
      7     -51.2471      2.00000
      8     -51.2087      2.00000
      9     -51.1655      2.00000
     10     -45.0624      2.00000
     11     -45.0168      2.00000
     12     -44.9589      2.00000
     13     -44.9255      2.00000
     14     -28.7159      2.00000
     15     -28.6754      2.00000
     16     -28.6438      2.00000
     17     -28.6196      2.00000
     18     -28.5959      2.00000
     19     -28.5438      2.00000
     20     -28.5248      2.00000
     21     -28.4979      2.00000
     22     -28.4840      2.00000
     23     -28.4473      2.00000
     24     -28.4191      2.00000
     25     -28.4158      2.00000
     26     -28.3799      2.00000
     27     -28.3091      2.00000
     28     -28.2786      2.00000
     29     -28.2466      2.00000
     30     -28.2262      2.00000
     31     -28.1957      2.00000
     32     -25.5521      2.00000
     33     -25.3803      2.00000
     34     -25.3637      2.00000
     35     -25.3347      2.00000
     36     -25.3205      2.00000
     37     -25.3059      2.00000
     38     -25.2735      2.00000
     39     -25.2543      2.00000
     40     -25.1037      2.00000
     41     -24.6751      2.00000
     42     -24.6034      2.00000
     43     -24.4770      2.00000
     44     -24.4436      2.00000
     45     -24.4206      2.00000
     46     -24.4024      2.00000
     47     -24.3606      2.00000
     48     -24.2620      2.00000
     49     -24.1965      2.00000
     50     -21.3878      2.00000
     51     -21.3445      2.00000
     52     -21.3399      2.00000
     53     -21.2099      2.00000
     54     -21.1521      2.00000
     55     -21.1039      2.00000
     56     -21.0389      2.00000
     57     -21.0147      2.00000
     58     -20.9685      2.00000
     59     -20.8490      2.00000
     60     -20.8471      2.00000
     61     -20.7969      2.00000
     62       3.8485      2.00000
     63       4.3198      2.00000
     64       4.4223      2.00000
     65       4.9771      2.00000
     66       5.2015      2.00000
     67       5.3188      2.00000
     68       5.6414      2.00000
     69       6.1683      2.00000
     70       6.5026      2.00000
     71       6.5200      2.00000
     72       6.5695      2.00000
     73       6.6236      2.00000
     74       6.7121      2.00000
     75       6.7445      2.00000
     76       6.8213      2.00000
     77       6.8467      2.00000
     78       6.8893      2.00000
     79       6.9270      2.00000
     80       7.0006      2.00000
     81       7.0429      2.00000
     82       7.3121      2.00000
     83       7.3326      2.00000
     84       7.3936      2.00000
     85       7.4649      2.00000
     86       7.4877      2.00000
     87       7.5490      2.00000
     88       7.5847      2.00000
     89       7.6128      2.00000
     90       7.6290      2.00000
     91       7.6586      2.00000
     92       7.6889      2.00000
     93       7.7231      2.00000
     94       7.7452      2.00000
     95       7.7690      2.00000
     96       7.8023      2.00000
     97       7.8352      2.00000
     98       7.8768      2.00000
     99       7.9051      2.00000
    100       7.9429      2.00000
    101       7.9730      2.00000
    102       7.9851      2.00000
    103       8.0728      2.00000
    104       8.1119      2.00000
    105       8.1753      2.00000
    106       8.1955      2.00000
    107       8.2323      2.00000
    108       8.2922      2.00000
    109       8.6282      2.00000
    110      11.2810      0.00000
    111      11.3186      0.00000
    112      11.5269      0.00000
    113      11.5970      0.00000
    114      11.6378      0.00000
    115      11.6624      0.00000
    116      11.7377      0.00000
    117      11.7719      0.00000
    118      11.8953      0.00000
    119      11.9600      0.00000
    120      11.9825      0.00000
    121      12.0205      0.00000
    122      12.0961      0.00000
    123      12.1372      0.00000
    124      12.2177      0.00000
    125      12.2798      0.00000
    126      12.3010      0.00000
    127      12.3715      0.00000
    128      12.4055      0.00000


--------------------------------------------------------------------------------------------------------


 soft charge-density along one line, spin component           1
         0         1         2         3         4         5         6         7         8         9
 total charge-density along one line
 
 pseudopotential strength for first ion, spin component:           1
  5.792 -20.407  -0.000  -0.001   0.001   0.000   0.002  -0.002
-20.407   9.312  -0.000  -0.001   0.001   0.000   0.000  -0.000
 -0.000  -0.000  -9.827   0.001   0.003   6.086  -0.002  -0.003
 -0.001  -0.001   0.001  -9.827  -0.002  -0.002   6.085   0.003
  0.001   0.001   0.003  -0.002  -9.822  -0.003   0.003   6.080
  0.000   0.000   6.086  -0.002  -0.003   7.887   0.001   0.002
  0.002   0.000  -0.002   6.085   0.003   0.001   7.887  -0.002
 -0.002  -0.000  -0.003   0.003   6.080   0.002  -0.002   7.890
  0.002   0.001   0.001   0.000  -0.000  -0.001  -0.000   0.000
  0.001   0.000  -0.001  -0.000   0.000   0.001   0.000  -0.000
 -0.001  -0.000   0.000  -0.001  -0.000  -0.000   0.001   0.000
 -0.002  -0.001   0.000   0.001  -0.001  -0.000  -0.001   0.001
  0.002   0.001   0.000  -0.000   0.001  -0.000   0.000  -0.001
  0.003   0.001   0.001   0.000  -0.000  -0.002  -0.000   0.001
  0.001   0.001  -0.001  -0.000   0.000   0.002   0.001  -0.000
 -0.001  -0.000   0.000  -0.001  -0.001  -0.000   0.001   0.001
 -0.002  -0.001   0.000   0.001  -0.001  -0.000  -0.002   0.002
  0.002   0.001   0.000  -0.000   0.001  -0.000   0.000  -0.001
 total augmentation occupancy for first ion, spin component:           1
  1.995  -0.049   0.000   0.000  -0.000   0.000   0.000  -0.000   0.006  -0.001  -0.001  -0.011   0.002  -0.005   0.000   0.001
 -0.049   1.309   0.001   0.001  -0.001   0.001   0.001  -0.001   0.024   0.008  -0.014  -0.016   0.025  -0.013  -0.011   0.005
  0.000   0.001   1.996   0.000  -0.000  -0.032  -0.001   0.001  -0.003   0.002  -0.000  -0.005  -0.001   0.002  -0.001   0.000
  0.000   0.001   0.000   1.996   0.000  -0.001  -0.032  -0.002  -0.005   0.006  -0.002  -0.003   0.000   0.003  -0.004   0.001
 -0.000  -0.001  -0.000   0.000   1.996   0.001  -0.002  -0.033   0.006  -0.005  -0.001   0.002   0.001  -0.004   0.003   0.000
  0.000   0.001  -0.032  -0.001   0.001   0.068   0.002  -0.000   0.001  -0.001  -0.001   0.010  -0.002  -0.001   0.001   0.000
  0.000   0.001  -0.001  -0.032  -0.002   0.002   0.068   0.003   0.010  -0.010   0.004   0.002  -0.000  -0.006   0.006  -0.002
 -0.000  -0.001   0.001  -0.002  -0.033  -0.000   0.003   0.072  -0.010   0.011   0.002  -0.001  -0.004   0.007  -0.006  -0.001
  0.006   0.024  -0.003  -0.005   0.006   0.001   0.010  -0.010   3.313   0.023  -0.043   0.068   0.002  -1.387  -0.029   0.021
 -0.001   0.008   0.002   0.006  -0.005  -0.001  -0.010   0.011   0.023   3.301  -0.002   0.064   0.002  -0.029  -1.379  -0.001
 -0.001  -0.014  -0.000  -0.002  -0.001  -0.001   0.004   0.002  -0.043  -0.002   2.544  -0.034  -0.027   0.020  -0.000  -1.156
 -0.011  -0.016  -0.005  -0.003   0.002   0.010   0.002  -0.001   0.068   0.064  -0.034   3.310  -0.072  -0.039  -0.028   0.016
  0.002   0.025  -0.001   0.000   0.001  -0.002  -0.000  -0.004   0.002   0.002  -0.027  -0.072   2.570  -0.001   0.002   0.009
 -0.005  -0.013   0.002   0.003  -0.004  -0.001  -0.006   0.007  -1.387  -0.029   0.020  -0.039  -0.001   0.593   0.019  -0.010
  0.000  -0.011  -0.001  -0.004   0.003   0.001   0.006  -0.006  -0.029  -1.379  -0.000  -0.028   0.002   0.019   0.588   0.001
  0.001   0.005   0.000   0.001   0.000   0.000  -0.002  -0.001   0.021  -0.001  -1.156   0.016   0.009  -0.010   0.001   0.533
  0.009  -0.003   0.003   0.002  -0.001  -0.006  -0.001   0.001  -0.039  -0.028   0.015  -1.386   0.030   0.021   0.013  -0.007
 -0.002  -0.009   0.001  -0.000  -0.001   0.001   0.000   0.002  -0.001   0.002   0.009   0.031  -1.166   0.000  -0.002  -0.003


------------------------ aborting loop because EDIFF is reached ----------------------------------------


    CHARGE:  cpu time      0.0888: real time      0.0891
    FORLOC:  cpu time      0.0005: real time      0.0005
    FORNL :  cpu time      0.8236: real time      0.8260
    STRESS:  cpu time      1.0516: real time      1.0551
    FORCOR:  cpu time      0.0066: real time      0.0066
    FORHAR:  cpu time      0.0014: real time      0.0014
    MIXING:  cpu time      0.0008: real time      0.0008
    OFIELD:  cpu time      0.0000: real time      0.0000

  FORCE on cell =-STRESS in cart. coord.  units (eV):
  Direction    XX          YY          ZZ          XY          YZ          ZX
  --------------------------------------------------------------------------------------
  Alpha Z  1855.51384  1855.51384  1855.51384
  Ewald   -7424.41271 -7360.93920 -7424.41271     0.00000    -0.00000    21.07683
  Hartree  1258.56117  1318.41526  1257.35385    -0.41483     0.46611    21.05172
  E(xc)    -973.06924  -973.09935  -973.06874     0.01408     0.00088    -0.06161
  Local    1714.25640  1591.49493  1715.61695     0.19275    -0.57489   -41.10408
  n-local  -280.48953  -280.63245  -280.50907     0.06704     0.04179     0.57793
  augment   637.17594   637.23527   637.15384    -0.01446    -0.02102    -0.22985
  Kinetic  3184.10928  3184.05438  3184.26759     0.03339     0.23623    -0.39186
  Fock        0.00000     0.00000     0.00000     0.00000     0.00000     0.00000
  -------------------------------------------------------------------------------------
  Total     -28.35484   -27.95732   -28.08444    -0.12204     0.14909     0.91907
  in kB    -159.46305  -157.22750  -157.94239    -0.68633     0.83846     5.16872
  external pressure =     -158.21 kB  Pullay stress =        0.00 kB


 VOLUME and BASIS-vectors are now :
 -----------------------------------------------------------------------------
  energy-cutoff  :      250.00
  volume of cell :      284.89
      direct lattice vectors                 reciprocal lattice vectors
     6.580000000  0.000000000  0.000000000     0.151975684  0.000000000  0.000000000
     0.000000000  6.580000000  0.000000000     0.000000000  0.151975684  0.000000000
     0.000000000  0.000000000  6.580000000     0.000000000  0.000000000  0.151975684

  length of vectors
     6.580000000  6.580000000  6.580000000     0.151975684  0.151975684  0.151975684


 FORCES acting on ions
    electron-ion (+dipol)            ewald-force                    non-local-force                 convergence-correction
 -----------------------------------------------------------------------------------------------
   0.308E+02 0.100E+02 -.308E+02   -.306E+02 -.102E+02 0.306E+02   -.344E-01 0.115E+00 0.399E-01   -.956E-04 0.118E-03 0.105E-03
   0.617E+02 0.208E+02 0.617E+02   -.612E+02 -.204E+02 -.612E+02   -.135E+00 -.813E-01 -.395E-01   0.115E-03 0.417E-04 0.790E-04
   -.618E+02 0.209E+02 -.617E+02   0.612E+02 -.204E+02 0.612E+02   0.135E+00 -.110E+00 0.271E-01   -.123E-03 0.729E-04 -.110E-03
   -.308E+02 0.100E+02 0.309E+02   0.306E+02 -.102E+02 -.306E+02   0.461E-01 0.112E+00 -.302E-01   0.861E-04 0.107E-03 -.106E-03
   -.663E+02 -.223E+02 0.662E+02   0.659E+02 0.220E+02 -.659E+02   0.533E-01 0.730E-02 0.194E-01   -.115E-03 -.248E-04 0.941E-04
   0.663E+02 0.223E+02 -.662E+02   -.659E+02 -.220E+02 0.659E+02   -.232E-01 -.209E-02 -.589E-01   0.127E-03 0.343E-04 -.745E-04
   -.331E+02 -.108E+02 0.331E+02   0.329E+02 0.110E+02 -.329E+02   -.248E-02 0.746E-03 0.218E-01   0.895E-04 -.115E-03 -.117E-03
   0.523E+02 -.177E+02 0.523E+02   -.518E+02 0.173E+02 -.518E+02   -.156E-01 -.227E-01 0.421E-01   0.121E-03 -.445E-04 0.121E-03
   -.261E+02 0.844E+01 -.261E+02   0.259E+02 -.863E+01 0.259E+02   -.161E-01 0.199E-01 -.532E-01   0.824E-04 0.102E-03 0.785E-04
   -.261E+02 -.841E+01 -.261E+02   0.259E+02 0.863E+01 0.259E+02   0.302E-01 -.445E-01 0.172E-02   0.638E-04 -.986E-04 0.711E-04
   0.332E+02 -.108E+02 0.332E+02   -.329E+02 0.110E+02 -.329E+02   -.965E-02 0.319E-01 0.463E-02   -.980E-04 -.100E-03 -.116E-03
   -.663E+02 -.223E+02 -.663E+02   0.659E+02 0.220E+02 0.659E+02   -.471E-01 -.115E+00 -.476E-01   -.128E-03 -.573E-04 -.888E-04
   0.663E+02 -.223E+02 -.662E+02   -.659E+02 0.220E+02 0.659E+02   0.244E-01 -.794E-01 -.619E-01   0.132E-03 -.208E-04 -.110E-03
   0.331E+02 0.109E+02 0.331E+02   -.329E+02 -.110E+02 -.329E+02   0.416E-01 -.627E-01 0.531E-01   -.960E-04 0.841E-04 -.124E-03
   0.331E+02 -.109E+02 -.331E+02   -.329E+02 0.110E+02 0.329E+02   0.440E-01 0.942E-01 -.520E-01   -.935E-04 -.125E-03 0.103E-03
   -.663E+02 0.223E+02 0.662E+02   0.659E+02 -.220E+02 -.659E+02   -.821E-01 0.877E-01 0.933E-01   -.968E-04 0.317E-04 0.984E-04
 -----------------------------------------------------------------------------------------------
   -.902E-02 0.489E-01 0.403E-01   -.142E-13 -.355E-14 0.142E-13   0.903E-02 -.489E-01 -.401E-01   -.287E-04 0.470E-05 -.973E-04
 
 
 POSITION                                       TOTAL-FORCE (eV/Angst)
 -----------------------------------------------------------------------------------
      3.29000      0.00000      0.00000         0.211634     -0.068230     -0.192954
      1.64500      1.64500      1.64500         0.388404      0.360879      0.453373
      4.93500      1.64500      4.93500        -0.444459      0.364018     -0.508908
      0.00000      0.00000      3.29000        -0.199852     -0.089251      0.230827
      4.93500      4.93500      1.64500        -0.339741     -0.290793      0.285067
      1.64500      1.64500      4.93500         0.352873      0.290189     -0.320733
      0.00000      3.29000      3.29000        -0.152476      0.162207      0.184773
      1.64500      4.93500      1.64500         0.496178     -0.496801      0.545591
      0.00000      0.00000      0.00000        -0.237550     -0.169190     -0.245276
      0.00000      3.29000      0.00000        -0.232379      0.170631     -0.243451
      3.29000      3.29000      3.29000         0.228303      0.192720      0.229063
      4.93500      4.93500      4.93500        -0.443998     -0.427435     -0.441911
      1.64500      4.93500      4.93500         0.398732     -0.397753     -0.396944
      3.29000      0.00000      3.29000         0.227651     -0.188966      0.229645
      3.29000      3.29000      0.00000         0.207439      0.193712     -0.195596
      4.93500      1.64500      1.64500        -0.460761      0.394063      0.387436
 -----------------------------------------------------------------------------------
    total drift:                               -0.000023     -0.000010      0.000009


--------------------------------------------------------------------------------------------------------



  FREE ENERGIE OF THE ION-ELECTRON SYSTEM (eV)
  ---------------------------------------------------
  free  energy   TOTEN  =      -187.37487657 eV

  energy  without entropy=     -187.37183777  energy(sigma->0) =     -187.37335717
 


--------------------------------------------------------------------------------------------------------


    POTLOK:  cpu time      0.0063: real time      0.0203


--------------------------------------------------------------------------------------------------------


     LOOP+:  cpu time     89.4377: real time     89.9671
    4ORBIT:  cpu time      0.0000: real time      0.0000

 total amount of memory used by VASP MPI-rank0    48253. kBytes
=======================================================================

   base      :      30000. kBytes
   nonl-proj :       8332. kBytes
   fftplans  :        456. kBytes
   grid      :        919. kBytes
   one-center:         31. kBytes
   wavefun   :       8515. kBytes
 
  
  
 General timing and accounting informations for this job:
 ========================================================
  
                  Total CPU time used (sec):       93.557
                            User time (sec):       92.232
                          System time (sec):        1.325
                         Elapsed time (sec):       94.873
  
                   Maximum memory used (kb):       89920.
                   Average memory used (kb):          N/A
  
                          Minor page faults:        11155
                          Major page faults:            0
                 Voluntary context switches:          233
