 vasp.6.3.1 04May22 (build Jul 26 2022 04:02:40) complex                        
  
 executed on             LinuxIFC date 2023.11.30  03:18:59
 running on   48 total cores
 distrk:  each k-point on   48 cores,    1 groups
 distr:  one band on NCORE=  12 cores,    4 groups


--------------------------------------------------------------------------------------------------------


 INCAR:
   ISTART = 0
   NWRITE = 2
   PREC = Accurate
   ENCUT = 250
   GGA = PE
   NSW = 0
   ISIF = 2
   ISYM = 2
   NBLOCK = 1
   KBLOCK = 1
   IBRION = -1
   NELM = 80
   EDIFF = 1E-08
   EDIFFG = -0.01
   ALGO = Normal
   LDIAG = .TRUE.
   LREAL = .FALSE.
   ISMEAR = 0
   SIGMA = 0.02
   ICHARG = 2
   LPLANE = .TRUE.
   NPAR = 4
   LSCALU = .FALSE.
   NSIM = 4
   LWAVE = .FALSE.
   LCHARG = .FALSE.
   ICORELEVEL = 1

 POTCAR:    PAW_PBE Nb_sv 25May2007               
 POTCAR:    PAW_PBE Mo_sv 02Feb2006               
 POTCAR:    PAW_PBE Ta_pv 07Sep2000               
 POTCAR:    PAW_PBE W_sv 04Sep2015                
 POTCAR:    PAW_PBE Nb_sv 25May2007               
   SHA256 =  0e8fc07c9fcd1164cf2ade22d0399fd28f85e91cd773dfa6cf24839a48c95e24 Nb_sv/POTCAR          
   COPYR  = (c) Copyright 25May2007 Georg Kresse                                                    
   COPYR  = This file is part of the software VASP. Any use, copying, and all other rights are regul
   COPYR  = If you do not have a valid VASP license, you may not use, copy or distribute this file. 
   VRHFIN =Nb: 4p5s4d                                                                               
   LEXCH  = PE                                                                                      
   EATOM  =  1555.1913 eV,  114.3033 Ry                                                             
                                                                                                    
   TITEL  = PAW_PBE Nb_sv 25May2007                                                                 
   LULTRA =        F    use ultrasoft PP ?                                                          
   IUNSCR =        1    unscreen: 0-lin 1-nonlin 2-no                                               
   RPACOR =    1.800    partial core radius                                                         
   POMASS =   92.910; ZVAL   =   13.000    mass and valenz                                          
   RCORE  =    2.400    outmost cutoff radius                                                       
   RWIGS  =    2.400; RWIGS  =    1.270    wigner-seitz radius (au A)                               
   ENMAX  =  293.235; ENMIN  =  219.927 eV                                                          
   ICORE  =        3    local potential                                                             
   LCOR   =        T    correct aug charges                                                         
   LPAW   =        T    paw PP                                                                      
   EAUG   =  455.659                                                                                
   DEXC   =    0.000                                                                                
   RMAX   =    2.456    core radius for proj-oper                                                   
   RAUG   =    1.300    factor for augmentation sphere                                              
   RDEP   =    2.451    radius for radial grids                                                     
   RDEPT  =    1.956    core radius for aug-charge                                                  
                                                                                                    
   Atomic configuration                                                                             
   11 entries                                                                                       
     n  l   j            E        occ.                                                              
     1  0  0.50    -18805.2457   2.0000                                                             
     2  0  0.50     -2630.2869   2.0000                                                             
     2  1  1.50     -2348.4046   6.0000                                                             
     3  0  0.50      -438.8757   2.0000                                                             
     3  1  1.50      -346.7588   6.0000                                                             
     3  2  2.50      -196.2560  10.0000                                                             
     4  0  0.50       -58.3859   2.0000                                                             
     5  0  0.50        -3.9816   1.0000                                                             
     4  1  1.50       -34.5141   6.0000                                                             
     4  2  2.50        -3.0408   4.0000                                                             
     4  3  2.50        -1.3606   0.0000                                                             
   Description                                                                                      
     l       E           TYP  RCUT    TYP  RCUT                                                     
     0    -58.3859094     23  2.200                                                                 
     0     -3.9816262     23  2.200                                                                 
     1    -34.5140738     23  2.200                                                                 
     1     13.6058260     23  2.200                                                                 
     2     -3.0408010     23  2.200                                                                 
     2     -0.1283038     23  2.200                                                                 
     3     -1.3605826     23  2.400                                                                 
  local pseudopotential read in
  partial core-charges read in
  partial kinetic energy density read in
  atomic valenz-charges read in
  non local Contribution for L=           0  read in
    real space projection operators read in
  non local Contribution for L=           0  read in
    real space projection operators read in
  non local Contribution for L=           1  read in
    real space projection operators read in
  non local Contribution for L=           1  read in
    real space projection operators read in
  non local Contribution for L=           2  read in
    real space projection operators read in
  non local Contribution for L=           2  read in
    real space projection operators read in
    PAW grid and wavefunctions read in
 
   number of l-projection  operators is LMAX  =           6
   number of lm-projection operators is LMMAX =          18
 
 POTCAR:    PAW_PBE Mo_sv 02Feb2006               
   SHA256 =  2731df97e41766cc617548c5a8267718fdef1f509ac6bafa01e745abea2bdfaa Mo_sv/POTCAR          
   COPYR  = (c) Copyright 02Feb2006 Georg Kresse                                                    
   COPYR  = This file is part of the software VASP. Any use, copying, and all other rights are regul
   COPYR  = If you do not have a valid VASP license, you may not use, copy or distribute this file. 
   VRHFIN =Mo: 4p5s4d                                                                               
   LEXCH  = PE                                                                                      
   EATOM  =  1862.2866 eV,  136.8742 Ry                                                             
                                                                                                    
   TITEL  = PAW_PBE Mo_sv 02Feb2006                                                                 
   LULTRA =        F    use ultrasoft PP ?                                                          
   IUNSCR =        1    unscreen: 0-lin 1-nonlin 2-no                                               
   RPACOR =    2.200    partial core radius                                                         
   POMASS =   95.940; ZVAL   =   14.000    mass and valenz                                          
   RCORE  =    2.500    outmost cutoff radius                                                       
   RWIGS  =    2.750; RWIGS  =    1.455    wigner-seitz radius (au A)                               
   ENMAX  =  242.676; ENMIN  =  182.007 eV                                                          
   ICORE  =        3    local potential                                                             
   LCOR   =        T    correct aug charges                                                         
   LPAW   =        T    paw PP                                                                      
   EAUG   =  446.014                                                                                
   DEXC   =    0.000                                                                                
   RMAX   =    2.563    core radius for proj-oper                                                   
   RAUG   =    1.300    factor for augmentation sphere                                              
   RDEP   =    2.641    radius for radial grids                                                     
   RDEPT  =    2.031    core radius for aug-charge                                                  
                                                                                                    
   Atomic configuration                                                                             
   11 entries                                                                                       
     n  l   j            E        occ.                                                              
     1  0  0.50    -19819.0341   2.0000                                                             
     2  0  0.50     -2799.0127   2.0000                                                             
     2  1  1.50     -2502.0276   6.0000                                                             
     3  0  0.50      -476.4449   2.0000                                                             
     3  1  1.50      -379.1496   6.0000                                                             
     3  2  2.50      -220.9367  10.0000                                                             
     4  0  0.50       -64.3378   2.0000                                                             
     5  0  0.50        -4.0862   1.0000                                                             
     4  1  1.50       -38.4773   6.0000                                                             
     4  2  2.50        -3.7535   5.0000                                                             
     4  3  2.50        -1.3606   0.0000                                                             
   Description                                                                                      
     l       E           TYP  RCUT    TYP  RCUT                                                     
     0    -64.3377829     23  2.100                                                                 
     0     -4.0861640     23  2.400                                                                 
     1    -38.4772993     23  2.100                                                                 
     1     13.6058260     23  2.100                                                                 
     2     -3.7534941     23  2.400                                                                 
     2     -5.1140767     23  2.400                                                                 
     3     -4.0817478     23  2.500                                                                 
  local pseudopotential read in
  partial core-charges read in
  partial kinetic energy density read in
  atomic valenz-charges read in
  non local Contribution for L=           0  read in
    real space projection operators read in
  non local Contribution for L=           0  read in
    real space projection operators read in
  non local Contribution for L=           1  read in
    real space projection operators read in
  non local Contribution for L=           1  read in
    real space projection operators read in
  non local Contribution for L=           2  read in
    real space projection operators read in
  non local Contribution for L=           2  read in
    real space projection operators read in
    PAW grid and wavefunctions read in
 
   number of l-projection  operators is LMAX  =           6
   number of lm-projection operators is LMMAX =          18
 
 POTCAR:    PAW_PBE Ta_pv 07Sep2000               
   SHA256 =  00d0a14a36c127416459414afb8617d9754996fffa60a2465888e660b20a452f Ta_pv/POTCAR          
   COPYR  = (c) Copyright 07Sep2000 Georg Kresse                                                    
   COPYR  = This file is part of the software VASP. Any use, copying, and all other rights are regul
   COPYR  = If you do not have a valid VASP license, you may not use, copy or distribute this file. 
   VRHFIN =Ta:  5p6s5d                                                                              
   LEXCH  = PE                                                                                      
   EATOM  =  1047.1984 eV,   76.9669 Ry                                                             
                                                                                                    
   TITEL  = PAW_PBE Ta_pv 07Sep2000                                                                 
   LULTRA =        F    use ultrasoft PP ?                                                          
   IUNSCR =        1    unscreen: 0-lin 1-nonlin 2-no                                               
   RPACOR =    2.330    partial core radius                                                         
   POMASS =  180.948; ZVAL   =   11.000    mass and valenz                                          
   RCORE  =    2.500    outmost cutoff radius                                                       
   RWIGS  =    2.840; RWIGS  =    1.503    wigner-seitz radius (au A)                               
   ENMAX  =  223.667; ENMIN  =  167.750 eV                                                          
   RCLOC  =    2.205    cutoff for local pot                                                        
   LCOR   =        T    correct aug charges                                                         
   LPAW   =        T    paw PP                                                                      
   EAUG   =  377.421                                                                                
   DEXC   =    0.000                                                                                
   RMAX   =    2.551    core radius for proj-oper                                                   
   RAUG   =    1.300    factor for augmentation sphere                                              
   RDEP   =    2.526    radius for radial grids                                                     
   RDEPT  =    2.132    core radius for aug-charge                                                  
                                                                                                    
   Atomic configuration                                                                             
   15 entries                                                                                       
     n  l   j            E        occ.                                                              
     1  0  0.50    -67341.2801   2.0000                                                             
     2  0  0.50    -11566.9369   2.0000                                                             
     2  1  1.50    -10134.1175   6.0000                                                             
     3  0  0.50     -2648.5614   2.0000                                                             
     3  1  1.50     -2222.6006   6.0000                                                             
     3  2  2.50     -1726.3114  10.0000                                                             
     4  0  0.50      -538.6957   2.0000                                                             
     4  1  1.50      -399.0125   6.0000                                                             
     4  2  2.50      -220.3955  10.0000                                                             
     4  3  3.50       -23.0371  14.0000                                                             
     5  0  0.50       -71.2900   2.0000                                                             
     5  1  1.50       -37.8224   6.0000                                                             
     5  2  2.50        -2.6455   4.0000                                                             
     6  0  0.50        -4.9623   1.0000                                                             
     5  3  2.50        -1.3606   0.0000                                                             
   Description                                                                                      
     l       E           TYP  RCUT    TYP  RCUT                                                     
     1    -37.8224449     23  2.500                                                                 
     1      1.3605826     23  2.500                                                                 
     2     -2.6454718     23  2.500                                                                 
     2     -0.6258570     23  2.500                                                                 
     0     -4.9622674     23  2.500                                                                 
     0      4.7531427     23  2.500                                                                 
  local pseudopotential read in
  partial core-charges read in
  partial kinetic energy density read in
  atomic valenz-charges read in
  non local Contribution for L=           1  read in
    real space projection operators read in
  non local Contribution for L=           1  read in
    real space projection operators read in
  non local Contribution for L=           2  read in
    real space projection operators read in
  non local Contribution for L=           2  read in
    real space projection operators read in
  non local Contribution for L=           0  read in
    real space projection operators read in
  non local Contribution for L=           0  read in
    real space projection operators read in
    PAW grid and wavefunctions read in
 
   number of l-projection  operators is LMAX  =           6
   number of lm-projection operators is LMMAX =          18
 
 POTCAR:    PAW_PBE W_sv 04Sep2015                
   SHA256 =  931c2d770f65867ef30f3db3421922900fc0890ebac5c3e12f63b6a2064023d7 W_sv/POTCAR           
   COPYR  = (c) Copyright 04Sep2015 Georg Kresse                                                    
   COPYR  = This file is part of the software VASP. Any use, copying, and all other rights are regul
   COPYR  = If you do not have a valid VASP license, you may not use, copy or distribute this file. 
   VRHFIN =W : 5p6s5d                                                                               
   LEXCH  = PE                                                                                      
   EATOM  =  1865.5791 eV,  137.1162 Ry                                                             
                                                                                                    
   TITEL  = PAW_PBE W_sv 04Sep2015                                                                  
   LULTRA =        F    use ultrasoft PP ?                                                          
   IUNSCR =        1    unscreen: 0-lin 1-nonlin 2-no                                               
   RPACOR =    2.330    partial core radius                                                         
   POMASS =  183.850; ZVAL   =   14.000    mass and valenz                                          
   RCORE  =    2.500    outmost cutoff radius                                                       
   RWIGS  =    2.750; RWIGS  =    1.455    wigner-seitz radius (au A)                               
   ENMAX  =  223.057; ENMIN  =  167.293 eV                                                          
   ICORE  =        3    local potential                                                             
   LCOR   =        T    correct aug charges                                                         
   LPAW   =        T    paw PP                                                                      
   EAUG   =  373.438                                                                                
   DEXC   =    0.000                                                                                
   RMAX   =    2.565    core radius for proj-oper                                                   
   RAUG   =    1.300    factor for augmentation sphere                                              
   RDEP   =    2.539    radius for radial grids                                                     
   RDEPT  =    2.126    core radius for aug-charge                                                  
                                                                                                    
   Atomic configuration                                                                             
   15 entries                                                                                       
     n  l   j            E        occ.                                                              
     1  0  0.50    -69465.5834   2.0000                                                             
     2  0  0.50    -11986.2640   2.0000                                                             
     2  1  1.50    -10479.8613   6.0000                                                             
     3  0  0.50     -2759.0756   2.0000                                                             
     3  1  1.50     -2313.1855   6.0000                                                             
     3  2  2.50     -1801.1183  10.0000                                                             
     4  0  0.50      -567.6789   2.0000                                                             
     4  1  1.50      -421.4692   6.0000                                                             
     4  2  2.50      -236.3471  10.0000                                                             
     4  3  3.50       -31.2665  14.0000                                                             
     5  0  0.50       -77.1084   2.0000                                                             
     6  0  0.50        -5.1438   1.0000                                                             
     5  1  1.50       -41.3856   6.0000                                                             
     5  2  2.50        -3.3185   5.0000                                                             
     5  3  2.50        -1.3606   0.0000                                                             
   Description                                                                                      
     l       E           TYP  RCUT    TYP  RCUT                                                     
     0    -77.1084470     23  2.100                                                                 
     0     -5.1437956     23  2.300                                                                 
     1    -41.3855615     23  2.500                                                                 
     1     -2.7211652     23  2.500                                                                 
     2     -3.3185025     23  2.500                                                                 
     2     -1.5965151     23  2.500                                                                 
     3     -1.3605826     23  2.500                                                                 
  local pseudopotential read in
  partial core-charges read in
  partial kinetic energy density read in
  kinetic energy density of atom read in
  atomic valenz-charges read in
  non local Contribution for L=           0  read in
    real space projection operators read in
  non local Contribution for L=           0  read in
    real space projection operators read in
  non local Contribution for L=           1  read in
    real space projection operators read in
  non local Contribution for L=           1  read in
    real space projection operators read in
  non local Contribution for L=           2  read in
    real space projection operators read in
  non local Contribution for L=           2  read in
    real space projection operators read in
    PAW grid and wavefunctions read in
 
   number of l-projection  operators is LMAX  =           6
   number of lm-projection operators is LMMAX =          18
 
  PAW_PBE Nb_sv 25May2007               :
 energy of atom  1       EATOM=-1555.1913
 kinetic energy error for atom=    0.2155 (will be added to EATOM!!)
  PAW_PBE Mo_sv 02Feb2006               :
 energy of atom  2       EATOM=-1862.2866
 kinetic energy error for atom=    0.1102 (will be added to EATOM!!)
  PAW_PBE Ta_pv 07Sep2000               :
 energy of atom  3       EATOM=-1047.1984
 kinetic energy error for atom=    0.0394 (will be added to EATOM!!)
  PAW_PBE W_sv 04Sep2015                :
 energy of atom  4       EATOM=-1865.5791
 kinetic energy error for atom=    0.0589 (will be added to EATOM!!)
 
 
 POSCAR: Nb-Mo-Ta-W alloy
  positions in direct lattice
  No initial velocities read in
 exchange correlation table for  LEXCH =        8
   RHO(1)=    0.500       N(1)  =     2000
   RHO(2)=  100.500       N(2)  =     4000
 


--------------------------------------------------------------------------------------------------------


 ion  position               nearest neighbor table
   1  0.250  0.250  0.750-   2 2.85   5 2.85   7 2.85   8 2.85   9 2.85  13 2.85  15 2.85  16 2.85
                            11 3.29  14 3.29  14 3.29  11 3.29
   2  0.500  0.000  0.500-   1 2.85   3 2.85   4 2.85   6 2.85  10 2.85  11 2.85  12 2.85  14 2.85

   3  0.750  0.250  0.750-   2 2.85   5 2.85   7 2.85   8 2.85   9 2.85  13 2.85  15 2.85  16 2.85
                            12 3.29  12 3.29
   4  0.250  0.750  0.250-   2 2.85   5 2.85   7 2.85   8 2.85   9 2.85  13 2.85  15 2.85  16 2.85
                            14 3.29  11 3.29  10 3.29  11 3.29  14 3.29  10 3.29
   5  0.500  0.500  0.000-   1 2.85   3 2.85   4 2.85   6 2.85  10 2.85  11 2.85  12 2.85  14 2.85

   6  0.750  0.750  0.750-   2 2.85   5 2.85   7 2.85   8 2.85   9 2.85  13 2.85  15 2.85  16 2.85
                            11 3.29  10 3.29  10 3.29  11 3.29
   7  0.500  0.500  0.500-   1 2.85   3 2.85   4 2.85   6 2.85  10 2.85  11 2.85  12 2.85  14 2.85
                            16 3.29  16 3.29
   8  0.000  0.500  0.000-   1 2.85   3 2.85   4 2.85   6 2.85  10 2.85  11 2.85  12 2.85  14 2.85
                            13 3.29  16 3.29  16 3.29  13 3.29
   9  0.500  0.000  0.000-   1 2.85   3 2.85   4 2.85   6 2.85  10 2.85  11 2.85  12 2.85  14 2.85
                            13 3.29  13 3.29
  10  0.750  0.750  0.250-   2 2.85   5 2.85   7 2.85   8 2.85   9 2.85  13 2.85  15 2.85  16 2.85
                             6 3.29   4 3.29  12 3.29   6 3.29  12 3.29   4 3.29
  11  0.250  0.750  0.750-   2 2.85   5 2.85   7 2.85   8 2.85   9 2.85  13 2.85  15 2.85  16 2.85
                             4 3.29   1 3.29   6 3.29   4 3.29   1 3.29   6 3.29
  12  0.750  0.250  0.250-   2 2.85   5 2.85   7 2.85   8 2.85   9 2.85  13 2.85  15 2.85  16 2.85
                            14 3.29  10 3.29   3 3.29   3 3.29  10 3.29  14 3.29
  13  0.000  0.000  0.000-   1 2.85   3 2.85   4 2.85   6 2.85  10 2.85  11 2.85  12 2.85  14 2.85
                             8 3.29   9 3.29  15 3.29  15 3.29   8 3.29   9 3.29
  14  0.250  0.250  0.250-   2 2.85   5 2.85   7 2.85   8 2.85   9 2.85  13 2.85  15 2.85  16 2.85
                             1 3.29   4 3.29  12 3.29   1 3.29   4 3.29  12 3.29
  15  0.000  0.000  0.500-   1 2.85   3 2.85   4 2.85   6 2.85  10 2.85  11 2.85  12 2.85  14 2.85
                            13 3.29  16 3.29  13 3.29  16 3.29
  16  0.000  0.500  0.500-   1 2.85   3 2.85   4 2.85   6 2.85  10 2.85  11 2.85  12 2.85  14 2.85
                             7 3.29   8 3.29  15 3.29   8 3.29  15 3.29   7 3.29
 
  LATTYP: Found a simple cubic cell.
 ALAT       =     6.5800000000
  
  Lattice vectors:
  
 A1 = (   6.5800000000,   0.0000000000,   0.0000000000)
 A2 = (   0.0000000000,   6.5800000000,   0.0000000000)
 A3 = (   0.0000000000,   0.0000000000,   6.5800000000)


Analysis of symmetry for initial positions (statically):
=====================================================================
 Subroutine PRICEL returns:
 Original cell was already a primitive cell.
 

 Routine SETGRP: Setting up the symmetry group for a 
 simple cubic supercell.


 Subroutine GETGRP returns: Found  1 space group operations
 (whereof  1 operations were pure point group operations)
 out of a pool of 48 trial point group operations.


The static configuration has the point symmetry C_1 .


Analysis of symmetry for dynamics (positions and initial velocities):
=====================================================================
 Subroutine PRICEL returns:
 Original cell was already a primitive cell.
 

 Routine SETGRP: Setting up the symmetry group for a 
 simple cubic supercell.


 Subroutine GETGRP returns: Found  1 space group operations
 (whereof  1 operations were pure point group operations)
 out of a pool of 48 trial point group operations.


The dynamic configuration has the point symmetry C_1 .


 Subroutine INISYM returns: Found  1 space group operations
 (whereof  1 operations are pure point group operations),
 and found     1 'primitive' translations


----------------------------------------------------------------------------------------

                                     Primitive cell                                     

  volume of cell :     284.8903

  direct lattice vectors                    reciprocal lattice vectors
     6.580000000  0.000000000  0.000000000     0.151975684  0.000000000  0.000000000
     0.000000000  6.580000000  0.000000000     0.000000000  0.151975684  0.000000000
     0.000000000  0.000000000  6.580000000     0.000000000  0.000000000  0.151975684

  length of vectors
     6.580000000  6.580000000  6.580000000     0.151975684  0.151975684  0.151975684

  position of ions in fractional coordinates (direct lattice)
     0.250000000  0.250000000  0.750000000
     0.500000000  0.000000000  0.500000000
     0.750000000  0.250000000  0.750000000
     0.250000000  0.750000000  0.250000000
     0.500000000  0.500000000  0.000000000
     0.750000000  0.750000000  0.750000000
     0.500000000  0.500000000  0.500000000
     0.000000000  0.500000000  0.000000000
     0.500000000  0.000000000  0.000000000
     0.750000000  0.750000000  0.250000000
     0.250000000  0.750000000  0.750000000
     0.750000000  0.250000000  0.250000000
     0.000000000  0.000000000  0.000000000
     0.250000000  0.250000000  0.250000000
     0.000000000  0.000000000  0.500000000
     0.000000000  0.500000000  0.500000000

  ion indices of the primitive-cell ions
   primitive index   ion index
                 1           1
                 2           2
                 3           3
                 4           4
                 5           5
                 6           6
                 7           7
                 8           8
                 9           9
                10          10
                11          11
                12          12
                13          13
                14          14
                15          15
                16          16

----------------------------------------------------------------------------------------

 
 
 KPOINTS: K-Spacing Value to Generate K-Mesh: 0.03

Automatic generation of k-mesh.
 Grid dimensions read from file:
 generate k-points for:    5    5    5

 Generating k-lattice:

  Cartesian coordinates                     Fractional coordinates (reciprocal lattice)
     0.030395137  0.000000000  0.000000000     0.200000000  0.000000000  0.000000000
     0.000000000  0.030395137  0.000000000     0.000000000  0.200000000  0.000000000
     0.000000000  0.000000000  0.030395137     0.000000000  0.000000000  0.200000000

  Length of vectors
     0.030395137  0.030395137  0.030395137

  Shift w.r.t. Gamma in fractional coordinates (k-lattice)
     0.000000000  0.000000000  0.000000000

 
 Subroutine IBZKPT returns following result:
 ===========================================
 
 Found     63 irreducible k-points:
 
 Following reciprocal coordinates:
            Coordinates               Weight
  0.000000  0.000000  0.000000      1.000000
  0.200000  0.000000  0.000000      2.000000
  0.000000  0.200000  0.000000      2.000000
  0.000000  0.000000  0.200000      2.000000
  0.400000  0.000000  0.000000      2.000000
  0.000000  0.400000  0.000000      2.000000
  0.000000  0.000000  0.400000      2.000000
  0.200000  0.200000  0.000000      2.000000
  0.000000  0.200000  0.200000      2.000000
  0.200000  0.000000  0.200000      2.000000
 -0.200000  0.200000  0.000000      2.000000
 -0.200000  0.000000  0.200000      2.000000
  0.000000 -0.200000  0.200000      2.000000
  0.400000  0.200000  0.000000      2.000000
  0.000000  0.400000  0.200000      2.000000
  0.200000  0.000000  0.400000      2.000000
 -0.200000  0.400000  0.000000      2.000000
 -0.400000  0.000000  0.200000      2.000000
  0.000000  0.200000  0.400000      2.000000
  0.000000 -0.400000  0.200000      2.000000
 -0.200000  0.000000  0.400000      2.000000
  0.400000  0.000000  0.200000      2.000000
  0.000000 -0.200000  0.400000      2.000000
  0.400000 -0.200000  0.000000      2.000000
  0.200000  0.400000  0.000000      2.000000
  0.400000  0.400000  0.000000      2.000000
  0.000000  0.400000  0.400000      2.000000
  0.400000  0.000000  0.400000      2.000000
 -0.400000  0.400000  0.000000      2.000000
 -0.400000  0.000000  0.400000      2.000000
  0.000000 -0.400000  0.400000      2.000000
  0.200000  0.200000  0.200000      2.000000
 -0.200000  0.200000  0.200000      2.000000
 -0.200000 -0.200000  0.200000      2.000000
  0.200000 -0.200000  0.200000      2.000000
  0.400000  0.200000  0.200000      2.000000
  0.200000  0.400000  0.200000      2.000000
  0.200000  0.200000  0.400000      2.000000
 -0.200000  0.400000  0.200000      2.000000
 -0.400000  0.200000  0.200000      2.000000
 -0.200000  0.200000  0.400000      2.000000
 -0.400000 -0.200000  0.200000      2.000000
 -0.200000 -0.400000  0.200000      2.000000
 -0.200000 -0.200000  0.400000      2.000000
  0.200000 -0.400000  0.200000      2.000000
  0.400000 -0.200000  0.200000      2.000000
  0.200000 -0.200000  0.400000      2.000000
  0.400000  0.400000  0.200000      2.000000
  0.200000  0.400000  0.400000      2.000000
  0.400000  0.200000  0.400000      2.000000
 -0.400000  0.400000  0.200000      2.000000
 -0.400000  0.200000  0.400000      2.000000
 -0.200000  0.400000  0.400000      2.000000
 -0.400000 -0.400000  0.200000      2.000000
 -0.200000 -0.400000  0.400000      2.000000
 -0.400000 -0.200000  0.400000      2.000000
  0.400000 -0.400000  0.200000      2.000000
  0.400000 -0.200000  0.400000      2.000000
  0.200000 -0.400000  0.400000      2.000000
  0.400000  0.400000  0.400000      2.000000
 -0.400000  0.400000  0.400000      2.000000
 -0.400000 -0.400000  0.400000      2.000000
  0.400000 -0.400000  0.400000      2.000000
 
 Following cartesian coordinates:
            Coordinates               Weight
  0.000000  0.000000  0.000000      1.000000
  0.030395  0.000000  0.000000      2.000000
  0.000000  0.030395  0.000000      2.000000
  0.000000  0.000000  0.030395      2.000000
  0.060790  0.000000  0.000000      2.000000
  0.000000  0.060790  0.000000      2.000000
  0.000000  0.000000  0.060790      2.000000
  0.030395  0.030395  0.000000      2.000000
  0.000000  0.030395  0.030395      2.000000
  0.030395  0.000000  0.030395      2.000000
 -0.030395  0.030395  0.000000      2.000000
 -0.030395  0.000000  0.030395      2.000000
  0.000000 -0.030395  0.030395      2.000000
  0.060790  0.030395  0.000000      2.000000
  0.000000  0.060790  0.030395      2.000000
  0.030395  0.000000  0.060790      2.000000
 -0.030395  0.060790  0.000000      2.000000
 -0.060790  0.000000  0.030395      2.000000
  0.000000  0.030395  0.060790      2.000000
  0.000000 -0.060790  0.030395      2.000000
 -0.030395  0.000000  0.060790      2.000000
  0.060790  0.000000  0.030395      2.000000
  0.000000 -0.030395  0.060790      2.000000
  0.060790 -0.030395  0.000000      2.000000
  0.030395  0.060790  0.000000      2.000000
  0.060790  0.060790  0.000000      2.000000
  0.000000  0.060790  0.060790      2.000000
  0.060790  0.000000  0.060790      2.000000
 -0.060790  0.060790  0.000000      2.000000
 -0.060790  0.000000  0.060790      2.000000
  0.000000 -0.060790  0.060790      2.000000
  0.030395  0.030395  0.030395      2.000000
 -0.030395  0.030395  0.030395      2.000000
 -0.030395 -0.030395  0.030395      2.000000
  0.030395 -0.030395  0.030395      2.000000
  0.060790  0.030395  0.030395      2.000000
  0.030395  0.060790  0.030395      2.000000
  0.030395  0.030395  0.060790      2.000000
 -0.030395  0.060790  0.030395      2.000000
 -0.060790  0.030395  0.030395      2.000000
 -0.030395  0.030395  0.060790      2.000000
 -0.060790 -0.030395  0.030395      2.000000
 -0.030395 -0.060790  0.030395      2.000000
 -0.030395 -0.030395  0.060790      2.000000
  0.030395 -0.060790  0.030395      2.000000
  0.060790 -0.030395  0.030395      2.000000
  0.030395 -0.030395  0.060790      2.000000
  0.060790  0.060790  0.030395      2.000000
  0.030395  0.060790  0.060790      2.000000
  0.060790  0.030395  0.060790      2.000000
 -0.060790  0.060790  0.030395      2.000000
 -0.060790  0.030395  0.060790      2.000000
 -0.030395  0.060790  0.060790      2.000000
 -0.060790 -0.060790  0.030395      2.000000
 -0.030395 -0.060790  0.060790      2.000000
 -0.060790 -0.030395  0.060790      2.000000
  0.060790 -0.060790  0.030395      2.000000
  0.060790 -0.030395  0.060790      2.000000
  0.030395 -0.060790  0.060790      2.000000
  0.060790  0.060790  0.060790      2.000000
 -0.060790  0.060790  0.060790      2.000000
 -0.060790 -0.060790  0.060790      2.000000
  0.060790 -0.060790  0.060790      2.000000
 


--------------------------------------------------------------------------------------------------------




 Dimension of arrays:
   k-points           NKPTS =     63   k-points in BZ     NKDIM =     63   number of bands    NBANDS=    124
   number of dos      NEDOS =    301   number of ions     NIONS =     16
   non local maximal  LDIM  =      6   non local SUM 2l+1 LMDIM =     18
   total plane-waves  NPLWV =  46656
   max r-space proj   IRMAX =      1   max aug-charges    IRDMAX=   9546
   dimension x,y,z NGX =    36 NGY =   36 NGZ =   36
   dimension x,y,z NGXF=    72 NGYF=   72 NGZF=   72
   support grid    NGXF=    72 NGYF=   72 NGZF=   72
   ions per type =               5   4   5   2
   NGX,Y,Z   is equivalent  to a cutoff of   9.10,  9.10,  9.10 a.u.
   NGXF,Y,Z  is equivalent  to a cutoff of  18.19, 18.19, 18.19 a.u.

 SYSTEM =  unknown system                          
 POSCAR =  Nb-Mo-Ta-W alloy                        

 Startparameter for this run:
   NWRITE =      2    write-flag & timer
   PREC   = accura    normal or accurate (medium, high low for compatibility)
   ISTART =      0    job   : 0-new  1-cont  2-samecut
   ICHARG =      2    charge: 1-file 2-atom 10-const
   ISPIN  =      1    spin polarized calculation?
   LNONCOLLINEAR =      F non collinear calculations
   LSORBIT =      F    spin-orbit coupling
   INIWAV =      1    electr: 0-lowe 1-rand  2-diag
   LASPH  =      F    aspherical Exc in radial PAW
 Electronic Relaxation 1
   ENCUT  =  250.0 eV  18.37 Ry    4.29 a.u.   8.48  8.48  8.48*2*pi/ulx,y,z
   ENINI  =  250.0     initial cutoff
   ENAUG  =  455.7 eV  augmentation charge cutoff
   NELM   =     80;   NELMIN=  2; NELMDL= -5     # of ELM steps 
   EDIFF  = 0.1E-07   stopping-criterion for ELM
   LREAL  =      F    real-space projection
   NLSPLINE    = F    spline interpolate recip. space projectors
   LCOMPAT=      F    compatible to vasp.4.4
   GGA_COMPAT  = T    GGA compatible to vasp.4.4-vasp.4.6
   LMAXPAW     = -100 max onsite density
   LMAXMIX     =    2 max onsite mixed and CHGCAR
   VOSKOWN=      0    Vosko Wilk Nusair interpolation
   ROPT   =    0.00000   0.00000   0.00000   0.00000
 Ionic relaxation
   EDIFFG = -.1E-01   stopping-criterion for IOM
   NSW    =      0    number of steps for IOM
   NBLOCK =      1;   KBLOCK =      1    inner block; outer block 
   IBRION =     -1    ionic relax: 0-MD 1-quasi-New 2-CG
   NFREE  =      0    steps in history (QN), initial steepest desc. (CG)
   ISIF   =      2    stress and relaxation
   IWAVPR =     10    prediction:  0-non 1-charg 2-wave 3-comb
   ISYM   =      2    0-nonsym 1-usesym 2-fastsym
   LCORR  =      T    Harris-Foulkes like correction to forces

   POTIM  = 0.5000    time-step for ionic-motion
   TEIN   =    0.0    initial temperature
   TEBEG  =    0.0;   TEEND  =   0.0 temperature during run
   SMASS  =  -3.00    Nose mass-parameter (am)
   estimated Nose-frequenzy (Omega)   =  0.10E-29 period in steps = 0.13E+47 mass=  -0.989E-27a.u.
   SCALEE = 1.0000    scale energy and forces
   NPACO  =    256;   APACO  = 10.0  distance and # of slots for P.C.
   PSTRESS=    0.0 pullay stress

  Mass of Ions in am
   POMASS =  92.91 95.94180.95183.85
  Ionic Valenz
   ZVAL   =  13.00 14.00 11.00 14.00
  Atomic Wigner-Seitz radii
   RWIGS  =  -1.00 -1.00 -1.00 -1.00
  virtual crystal weights 
   VCA    =   1.00  1.00  1.00  1.00
   NELECT =     204.0000    total number of electrons
   NUPDOWN=      -1.0000    fix difference up-down

 DOS related values:
   EMIN   =  10.00;   EMAX   =-10.00  energy-range for DOS
   EFERMI =   0.00
   ISMEAR =     0;   SIGMA  =   0.02  broadening in eV -4-tet -1-fermi 0-gaus

 Electronic relaxation 2 (details)
   IALGO  =     38    algorithm
   LDIAG  =      T    sub-space diagonalisation (order eigenvalues)
   LSUBROT=      F    optimize rotation matrix (better conditioning)
   TURBO    =      0    0=normal 1=particle mesh
   IRESTART =      0    0=no restart 2=restart with 2 vectors
   NREBOOT  =      0    no. of reboots
   NMIN     =      0    reboot dimension
   EREF     =   0.00    reference energy to select bands
   IMIX   =      4    mixing-type and parameters
     AMIX     =   0.40;   BMIX     =  1.00
     AMIX_MAG =   1.60;   BMIX_MAG =  1.00
     AMIN     =   0.10
     WC   =   100.;   INIMIX=   1;  MIXPRE=   1;  MAXMIX= -45

 Intra band minimization:
   WEIMIN = 0.0000     energy-eigenvalue tresh-hold
   EBREAK =  0.20E-10  absolut break condition
   DEPER  =   0.30     relativ break condition  

   TIME   =   0.40     timestep for ELM

  volume/ion in A,a.u.               =      17.81       120.16
  Fermi-wavevector in a.u.,A,eV,Ry     =   1.464622  2.767735 29.186111  2.145119
  Thomas-Fermi vector in A             =   2.580576
 
 Write flags
   LWAVE        =      F    write WAVECAR
   LDOWNSAMPLE  =      F    k-point downsampling of WAVECAR
   LCHARG       =      F    write CHGCAR
   LVTOT        =      F    write LOCPOT, total local potential
   LVHAR        =      F    write LOCPOT, Hartree potential only
   LELF         =      F    write electronic localiz. function (ELF)
   LORBIT       =      0    0 simple, 1 ext, 2 COOP (PROOUT), +10 PAW based schemes


 Dipole corrections
   LMONO  =      F    monopole corrections only (constant potential shift)
   LDIPOL =      F    correct potential (dipole corrections)
   IDIPOL =      0    1-x, 2-y, 3-z, 4-all directions 
   EPSILON=  1.0000000 bulk dielectric constant

 Core level calculations are selected ICORELEVEL =  1
 Exchange correlation treatment:
   GGA     =    PE    GGA type
   LEXCH   =     8    internal setting for exchange type
   LIBXC   =     F    Libxc                    
   VOSKOWN =     0    Vosko Wilk Nusair interpolation
   LHFCALC =     F    Hartree Fock is set to
   LHFONE  =     F    Hartree Fock one center treatment
   AEXX    =    0.0000 exact exchange contribution

 Linear response parameters
   LEPSILON=     F    determine dielectric tensor
   LRPA    =     F    only Hartree local field effects (RPA)
   LNABLA  =     F    use nabla operator in PAW spheres
   LVEL    =     F    velocity operator in full k-point grid
   CSHIFT  =0.1000    complex shift for real part using Kramers Kronig
   OMEGAMAX=  -1.0    maximum frequency
   DEG_THRESHOLD= 0.2000000E-02 threshold for treating states as degnerate
   RTIME   =   -0.100 relaxation time in fs
  (WPLASMAI=    0.000 imaginary part of plasma frequency in eV, 0.658/RTIME)
   DFIELD  = 0.0000000 0.0000000 0.0000000 field for delta impulse in time
 
  Optional k-point grid parameters
   LKPOINTS_OPT  =     F    use optional k-point grid
   KPOINTS_OPT_MODE=     1    mode for optional k-point grid
 
 Orbital magnetization related:
   ORBITALMAG=     F  switch on orbital magnetization
   LCHIMAG   =     F  perturbation theory with respect to B field
   DQ        =  0.001000  dq finite difference perturbation B field
   LLRAUG    =     F  two centre corrections for induced B field



--------------------------------------------------------------------------------------------------------


 Static calculation
 charge density and potential will be updated during run
 non-spin polarized calculation
 Variant of blocked Davidson
 Davidson routine will perform the subspace rotation
 perform sub-space diagonalisation
    after iterative eigenvector-optimisation
 modified Broyden-mixing scheme, WC =      100.0
 initial mixing is a Kerker type mixing with AMIX =  0.4000 and BMIX =      1.0000
 Hartree-type preconditioning will be used
 using additional bands           22
 reciprocal scheme for non local part
 use partial core corrections
 calculate Harris-corrections to forces 
   (improved forces if not selfconsistent)
 use gradient corrections 
 use of overlap-Matrix (Vanderbilt PP)
 Gauss-broadening in eV      SIGMA  =   0.02


--------------------------------------------------------------------------------------------------------


  energy-cutoff  :      250.00
  volume of cell :      284.89
      direct lattice vectors                 reciprocal lattice vectors
     6.580000000  0.000000000  0.000000000     0.151975684  0.000000000  0.000000000
     0.000000000  6.580000000  0.000000000     0.000000000  0.151975684  0.000000000
     0.000000000  0.000000000  6.580000000     0.000000000  0.000000000  0.151975684

  length of vectors
     6.580000000  6.580000000  6.580000000     0.151975684  0.151975684  0.151975684


 
 k-points in units of 2pi/SCALE and weight: K-Spacing Value to Generate K-Mesh: 0.03
   0.00000000  0.00000000  0.00000000       0.008
   0.03039514  0.00000000  0.00000000       0.016
   0.00000000  0.03039514  0.00000000       0.016
   0.00000000  0.00000000  0.03039514       0.016
   0.06079027  0.00000000  0.00000000       0.016
   0.00000000  0.06079027  0.00000000       0.016
   0.00000000  0.00000000  0.06079027       0.016
   0.03039514  0.03039514  0.00000000       0.016
   0.00000000  0.03039514  0.03039514       0.016
   0.03039514  0.00000000  0.03039514       0.016
  -0.03039514  0.03039514  0.00000000       0.016
  -0.03039514  0.00000000  0.03039514       0.016
   0.00000000 -0.03039514  0.03039514       0.016
   0.06079027  0.03039514  0.00000000       0.016
   0.00000000  0.06079027  0.03039514       0.016
   0.03039514  0.00000000  0.06079027       0.016
  -0.03039514  0.06079027  0.00000000       0.016
  -0.06079027  0.00000000  0.03039514       0.016
   0.00000000  0.03039514  0.06079027       0.016
   0.00000000 -0.06079027  0.03039514       0.016
  -0.03039514  0.00000000  0.06079027       0.016
   0.06079027  0.00000000  0.03039514       0.016
   0.00000000 -0.03039514  0.06079027       0.016
   0.06079027 -0.03039514  0.00000000       0.016
   0.03039514  0.06079027  0.00000000       0.016
   0.06079027  0.06079027  0.00000000       0.016
   0.00000000  0.06079027  0.06079027       0.016
   0.06079027  0.00000000  0.06079027       0.016
  -0.06079027  0.06079027  0.00000000       0.016
  -0.06079027  0.00000000  0.06079027       0.016
   0.00000000 -0.06079027  0.06079027       0.016
   0.03039514  0.03039514  0.03039514       0.016
  -0.03039514  0.03039514  0.03039514       0.016
  -0.03039514 -0.03039514  0.03039514       0.016
   0.03039514 -0.03039514  0.03039514       0.016
   0.06079027  0.03039514  0.03039514       0.016
   0.03039514  0.06079027  0.03039514       0.016
   0.03039514  0.03039514  0.06079027       0.016
  -0.03039514  0.06079027  0.03039514       0.016
  -0.06079027  0.03039514  0.03039514       0.016
  -0.03039514  0.03039514  0.06079027       0.016
  -0.06079027 -0.03039514  0.03039514       0.016
  -0.03039514 -0.06079027  0.03039514       0.016
  -0.03039514 -0.03039514  0.06079027       0.016
   0.03039514 -0.06079027  0.03039514       0.016
   0.06079027 -0.03039514  0.03039514       0.016
   0.03039514 -0.03039514  0.06079027       0.016
   0.06079027  0.06079027  0.03039514       0.016
   0.03039514  0.06079027  0.06079027       0.016
   0.06079027  0.03039514  0.06079027       0.016
  -0.06079027  0.06079027  0.03039514       0.016
  -0.06079027  0.03039514  0.06079027       0.016
  -0.03039514  0.06079027  0.06079027       0.016
  -0.06079027 -0.06079027  0.03039514       0.016
  -0.03039514 -0.06079027  0.06079027       0.016
  -0.06079027 -0.03039514  0.06079027       0.016
   0.06079027 -0.06079027  0.03039514       0.016
   0.06079027 -0.03039514  0.06079027       0.016
   0.03039514 -0.06079027  0.06079027       0.016
   0.06079027  0.06079027  0.06079027       0.016
  -0.06079027  0.06079027  0.06079027       0.016
  -0.06079027 -0.06079027  0.06079027       0.016
   0.06079027 -0.06079027  0.06079027       0.016
 
 k-points in reciprocal lattice and weights: K-Spacing Value to Generate K-Mesh: 0.03
   0.00000000  0.00000000  0.00000000       0.008
   0.20000000  0.00000000  0.00000000       0.016
   0.00000000  0.20000000  0.00000000       0.016
   0.00000000  0.00000000  0.20000000       0.016
   0.40000000  0.00000000  0.00000000       0.016
   0.00000000  0.40000000  0.00000000       0.016
   0.00000000  0.00000000  0.40000000       0.016
   0.20000000  0.20000000  0.00000000       0.016
   0.00000000  0.20000000  0.20000000       0.016
   0.20000000  0.00000000  0.20000000       0.016
  -0.20000000  0.20000000  0.00000000       0.016
  -0.20000000  0.00000000  0.20000000       0.016
   0.00000000 -0.20000000  0.20000000       0.016
   0.40000000  0.20000000  0.00000000       0.016
   0.00000000  0.40000000  0.20000000       0.016
   0.20000000  0.00000000  0.40000000       0.016
  -0.20000000  0.40000000  0.00000000       0.016
  -0.40000000  0.00000000  0.20000000       0.016
   0.00000000  0.20000000  0.40000000       0.016
   0.00000000 -0.40000000  0.20000000       0.016
  -0.20000000  0.00000000  0.40000000       0.016
   0.40000000  0.00000000  0.20000000       0.016
   0.00000000 -0.20000000  0.40000000       0.016
   0.40000000 -0.20000000  0.00000000       0.016
   0.20000000  0.40000000  0.00000000       0.016
   0.40000000  0.40000000  0.00000000       0.016
   0.00000000  0.40000000  0.40000000       0.016
   0.40000000  0.00000000  0.40000000       0.016
  -0.40000000  0.40000000  0.00000000       0.016
  -0.40000000  0.00000000  0.40000000       0.016
   0.00000000 -0.40000000  0.40000000       0.016
   0.20000000  0.20000000  0.20000000       0.016
  -0.20000000  0.20000000  0.20000000       0.016
  -0.20000000 -0.20000000  0.20000000       0.016
   0.20000000 -0.20000000  0.20000000       0.016
   0.40000000  0.20000000  0.20000000       0.016
   0.20000000  0.40000000  0.20000000       0.016
   0.20000000  0.20000000  0.40000000       0.016
  -0.20000000  0.40000000  0.20000000       0.016
  -0.40000000  0.20000000  0.20000000       0.016
  -0.20000000  0.20000000  0.40000000       0.016
  -0.40000000 -0.20000000  0.20000000       0.016
  -0.20000000 -0.40000000  0.20000000       0.016
  -0.20000000 -0.20000000  0.40000000       0.016
   0.20000000 -0.40000000  0.20000000       0.016
   0.40000000 -0.20000000  0.20000000       0.016
   0.20000000 -0.20000000  0.40000000       0.016
   0.40000000  0.40000000  0.20000000       0.016
   0.20000000  0.40000000  0.40000000       0.016
   0.40000000  0.20000000  0.40000000       0.016
  -0.40000000  0.40000000  0.20000000       0.016
  -0.40000000  0.20000000  0.40000000       0.016
  -0.20000000  0.40000000  0.40000000       0.016
  -0.40000000 -0.40000000  0.20000000       0.016
  -0.20000000 -0.40000000  0.40000000       0.016
  -0.40000000 -0.20000000  0.40000000       0.016
   0.40000000 -0.40000000  0.20000000       0.016
   0.40000000 -0.20000000  0.40000000       0.016
   0.20000000 -0.40000000  0.40000000       0.016
   0.40000000  0.40000000  0.40000000       0.016
  -0.40000000  0.40000000  0.40000000       0.016
  -0.40000000 -0.40000000  0.40000000       0.016
   0.40000000 -0.40000000  0.40000000       0.016
 
 position of ions in fractional coordinates (direct lattice) 
   0.25000000  0.25000000  0.75000000
   0.50000000  0.00000000  0.50000000
   0.75000000  0.25000000  0.75000000
   0.25000000  0.75000000  0.25000000
   0.50000000  0.50000000  0.00000000
   0.75000000  0.75000000  0.75000000
   0.50000000  0.50000000  0.50000000
   0.00000000  0.50000000  0.00000000
   0.50000000  0.00000000  0.00000000
   0.75000000  0.75000000  0.25000000
   0.25000000  0.75000000  0.75000000
   0.75000000  0.25000000  0.25000000
   0.00000000  0.00000000  0.00000000
   0.25000000  0.25000000  0.25000000
   0.00000000  0.00000000  0.50000000
   0.00000000  0.50000000  0.50000000
 
 position of ions in cartesian coordinates  (Angst):
   1.64500000  1.64500000  4.93500000
   3.29000000  0.00000000  3.29000000
   4.93500000  1.64500000  4.93500000
   1.64500000  4.93500000  1.64500000
   3.29000000  3.29000000  0.00000000
   4.93500000  4.93500000  4.93500000
   3.29000000  3.29000000  3.29000000
   0.00000000  3.29000000  0.00000000
   3.29000000  0.00000000  0.00000000
   4.93500000  4.93500000  1.64500000
   1.64500000  4.93500000  4.93500000
   4.93500000  1.64500000  1.64500000
   0.00000000  0.00000000  0.00000000
   1.64500000  1.64500000  1.64500000
   0.00000000  0.00000000  3.29000000
   0.00000000  3.29000000  3.29000000
 


--------------------------------------------------------------------------------------------------------


 k-point   1 :   0.0000 0.0000 0.0000  plane waves:    2517
 k-point   2 :   0.2000 0.0000 0.0000  plane waves:    2545
 k-point   3 :   0.0000 0.2000 0.0000  plane waves:    2545
 k-point   4 :   0.0000 0.0000 0.2000  plane waves:    2545
 k-point   5 :   0.4000 0.0000 0.0000  plane waves:    2569
 k-point   6 :   0.0000 0.4000 0.0000  plane waves:    2569
 k-point   7 :   0.0000 0.0000 0.4000  plane waves:    2569
 k-point   8 :   0.2000 0.2000 0.0000  plane waves:    2562
 k-point   9 :   0.0000 0.2000 0.2000  plane waves:    2562
 k-point  10 :   0.2000 0.0000 0.2000  plane waves:    2562
 k-point  11 :  -0.2000 0.2000 0.0000  plane waves:    2562
 k-point  12 :  -0.2000 0.0000 0.2000  plane waves:    2562
 k-point  13 :   0.0000-0.2000 0.2000  plane waves:    2562
 k-point  14 :   0.4000 0.2000 0.0000  plane waves:    2566
 k-point  15 :   0.0000 0.4000 0.2000  plane waves:    2566
 k-point  16 :   0.2000 0.0000 0.4000  plane waves:    2566
 k-point  17 :  -0.2000 0.4000 0.0000  plane waves:    2566
 k-point  18 :  -0.4000 0.0000 0.2000  plane waves:    2566
 k-point  19 :   0.0000 0.2000 0.4000  plane waves:    2566
 k-point  20 :   0.0000-0.4000 0.2000  plane waves:    2566
 k-point  21 :  -0.2000 0.0000 0.4000  plane waves:    2566
 k-point  22 :   0.4000 0.0000 0.2000  plane waves:    2566
 k-point  23 :   0.0000-0.2000 0.4000  plane waves:    2566
 k-point  24 :   0.4000-0.2000 0.0000  plane waves:    2566
 k-point  25 :   0.2000 0.4000 0.0000  plane waves:    2566
 k-point  26 :   0.4000 0.4000 0.0000  plane waves:    2570
 k-point  27 :   0.0000 0.4000 0.4000  plane waves:    2570
 k-point  28 :   0.4000 0.0000 0.4000  plane waves:    2570
 k-point  29 :  -0.4000 0.4000 0.0000  plane waves:    2570
 k-point  30 :  -0.4000 0.0000 0.4000  plane waves:    2570
 k-point  31 :   0.0000-0.4000 0.4000  plane waves:    2570
 k-point  32 :   0.2000 0.2000 0.2000  plane waves:    2572
 k-point  33 :  -0.2000 0.2000 0.2000  plane waves:    2572
 k-point  34 :  -0.2000-0.2000 0.2000  plane waves:    2572
 k-point  35 :   0.2000-0.2000 0.2000  plane waves:    2572
 k-point  36 :   0.4000 0.2000 0.2000  plane waves:    2546
 k-point  37 :   0.2000 0.4000 0.2000  plane waves:    2546
 k-point  38 :   0.2000 0.2000 0.4000  plane waves:    2546
 k-point  39 :  -0.2000 0.4000 0.2000  plane waves:    2546
 k-point  40 :  -0.4000 0.2000 0.2000  plane waves:    2546
 k-point  41 :  -0.2000 0.2000 0.4000  plane waves:    2546
 k-point  42 :  -0.4000-0.2000 0.2000  plane waves:    2546
 k-point  43 :  -0.2000-0.4000 0.2000  plane waves:    2546
 k-point  44 :  -0.2000-0.2000 0.4000  plane waves:    2546
 k-point  45 :   0.2000-0.4000 0.2000  plane waves:    2546
 k-point  46 :   0.4000-0.2000 0.2000  plane waves:    2546
 k-point  47 :   0.2000-0.2000 0.4000  plane waves:    2546
 k-point  48 :   0.4000 0.4000 0.2000  plane waves:    2549
 k-point  49 :   0.2000 0.4000 0.4000  plane waves:    2549
 k-point  50 :   0.4000 0.2000 0.4000  plane waves:    2549
 k-point  51 :  -0.4000 0.4000 0.2000  plane waves:    2549
 k-point  52 :  -0.4000 0.2000 0.4000  plane waves:    2549
 k-point  53 :  -0.2000 0.4000 0.4000  plane waves:    2549
 k-point  54 :  -0.4000-0.4000 0.2000  plane waves:    2549
 k-point  55 :  -0.2000-0.4000 0.4000  plane waves:    2549
 k-point  56 :  -0.4000-0.2000 0.4000  plane waves:    2549
 k-point  57 :   0.4000-0.4000 0.2000  plane waves:    2549
 k-point  58 :   0.4000-0.2000 0.4000  plane waves:    2549
 k-point  59 :   0.2000-0.4000 0.4000  plane waves:    2549
 k-point  60 :   0.4000 0.4000 0.4000  plane waves:    2533
 k-point  61 :  -0.4000 0.4000 0.4000  plane waves:    2533
 k-point  62 :  -0.4000-0.4000 0.4000  plane waves:    2533
 k-point  63 :   0.4000-0.4000 0.4000  plane waves:    2533

 maximum and minimum number of plane-waves per node :       235      194

 maximum number of plane-waves:      2572
 maximum index in each direction: 
   IXMAX=    8   IYMAX=    8   IZMAX=    8
   IXMIN=   -8   IYMIN=   -8   IZMIN=   -8


 parallel 3D FFT for wavefunctions:
    minimum data exchange during FFTs selected (reduces bandwidth)
 parallel 3D FFT for charge:
    minimum data exchange during FFTs selected (reduces bandwidth)


 total amount of memory used by VASP MPI-rank0    47987. kBytes
=======================================================================

   base      :      30000. kBytes
   nonl-proj :       8332. kBytes
   fftplans  :        456. kBytes
   grid      :        919. kBytes
   one-center:         31. kBytes
   wavefun   :       8249. kBytes
 
     INWAV:  cpu time      0.0000: real time      0.0001
 Broyden mixing: mesh for mixing (old mesh)
   NGX = 17   NGY = 17   NGZ = 17
  (NGX  = 72   NGY  = 72   NGZ  = 72)
  gives a total of   4913 points

 initial charge density was supplied:
 charge density of overlapping atoms calculated
 number of electron     204.0000000 magnetization 
 keeping initial charge density in first step


--------------------------------------------------------------------------------------------------------


 Maximum index for augmentation-charges          517 (set IRDMAX)


--------------------------------------------------------------------------------------------------------


 First call to EWALD:  gamma=   0.269
 Maximum number of real-space cells 3x 3x 3
 Maximum number of reciprocal cells 3x 3x 3

    FEWALD:  cpu time      0.0012: real time      0.0012


--------------------------------------- Iteration      1(   1)  ---------------------------------------


    POTLOK:  cpu time      0.0497: real time      1.4543
    SETDIJ:  cpu time      0.0028: real time      0.0028
     EDDAV:  cpu time      3.1891: real time      3.2037
       DOS:  cpu time      0.0044: real time      0.0044
    --------------------------------------------
      LOOP:  cpu time      3.2460: real time      4.6652

 eigenvalue-minimisations  : 16264
 total energy-change (2. order) : 0.1814623E+04  (-0.8006001E+04)
 number of electron     204.0000000 magnetization 
 augmentation part      204.0000000 magnetization 

 Free energy of the ion-electron system (eV)
  ---------------------------------------------------
  alpha Z        PSCENC =      1778.74691169
  Ewald energy   TEWEN  =    -20798.14155924
  -Hartree energ DENC   =     -3833.64559604
  -exchange      EXHF   =         0.00000000
  -V(xc)+E(xc)   XCENC  =       782.38190558
  PAW double counting   =     19191.93184909   -18895.09562579
  entropy T*S    EENTRO =        -0.00129033
  eigenvalues    EBANDS =      -601.97349367
  atomic energy  EATOM  =     24190.41967516
  Solvation  Ediel_sol  =         0.00000000
  ---------------------------------------------------
  free energy    TOTEN  =      1814.62277643 eV

  energy without entropy =     1814.62406676  energy(sigma->0) =     1814.62342159


--------------------------------------------------------------------------------------------------------




--------------------------------------- Iteration      1(   2)  ---------------------------------------


     EDDAV:  cpu time      3.1471: real time      3.1617
       DOS:  cpu time      0.0045: real time      0.0046
    --------------------------------------------
      LOOP:  cpu time      3.1516: real time      3.1663

 eigenvalue-minimisations  : 16356
 total energy-change (2. order) :-0.1839729E+04  (-0.1779190E+04)
 number of electron     204.0000000 magnetization 
 augmentation part      204.0000000 magnetization 

 Free energy of the ion-electron system (eV)
  ---------------------------------------------------
  alpha Z        PSCENC =      1778.74691169
  Ewald energy   TEWEN  =    -20798.14155924
  -Hartree energ DENC   =     -3833.64559604
  -exchange      EXHF   =         0.00000000
  -V(xc)+E(xc)   XCENC  =       782.38190558
  PAW double counting   =     19191.93184909   -18895.09562579
  entropy T*S    EENTRO =        -0.00131091
  eigenvalues    EBANDS =     -2441.70209317
  atomic energy  EATOM  =     24190.41967516
  Solvation  Ediel_sol  =         0.00000000
  ---------------------------------------------------
  free energy    TOTEN  =       -25.10584365 eV

  energy without entropy =      -25.10453274  energy(sigma->0) =      -25.10518819


--------------------------------------------------------------------------------------------------------




--------------------------------------- Iteration      1(   3)  ---------------------------------------


     EDDAV:  cpu time      4.3672: real time      4.3859
       DOS:  cpu time      0.0046: real time      0.0046
    --------------------------------------------
      LOOP:  cpu time      4.3718: real time      4.3905

 eigenvalue-minimisations  : 24888
 total energy-change (2. order) :-0.1539363E+03  (-0.1460177E+03)
 number of electron     204.0000000 magnetization 
 augmentation part      204.0000000 magnetization 

 Free energy of the ion-electron system (eV)
  ---------------------------------------------------
  alpha Z        PSCENC =      1778.74691169
  Ewald energy   TEWEN  =    -20798.14155924
  -Hartree energ DENC   =     -3833.64559604
  -exchange      EXHF   =         0.00000000
  -V(xc)+E(xc)   XCENC  =       782.38190558
  PAW double counting   =     19191.93184909   -18895.09562579
  entropy T*S    EENTRO =        -0.00375699
  eigenvalues    EBANDS =     -2595.63591550
  atomic energy  EATOM  =     24190.41967516
  Solvation  Ediel_sol  =         0.00000000
  ---------------------------------------------------
  free energy    TOTEN  =      -179.04211207 eV

  energy without entropy =     -179.03835508  energy(sigma->0) =     -179.04023357


--------------------------------------------------------------------------------------------------------




--------------------------------------- Iteration      1(   4)  ---------------------------------------


     EDDAV:  cpu time      4.2700: real time      4.2885
       DOS:  cpu time      0.0042: real time      0.0043
    --------------------------------------------
      LOOP:  cpu time      4.2742: real time      4.2927

 eigenvalue-minimisations  : 24216
 total energy-change (2. order) :-0.9973367E+01  (-0.9684858E+01)
 number of electron     204.0000000 magnetization 
 augmentation part      204.0000000 magnetization 

 Free energy of the ion-electron system (eV)
  ---------------------------------------------------
  alpha Z        PSCENC =      1778.74691169
  Ewald energy   TEWEN  =    -20798.14155924
  -Hartree energ DENC   =     -3833.64559604
  -exchange      EXHF   =         0.00000000
  -V(xc)+E(xc)   XCENC  =       782.38190558
  PAW double counting   =     19191.93184909   -18895.09562579
  entropy T*S    EENTRO =        -0.00385766
  eigenvalues    EBANDS =     -2605.60918167
  atomic energy  EATOM  =     24190.41967516
  Solvation  Ediel_sol  =         0.00000000
  ---------------------------------------------------
  free energy    TOTEN  =      -189.01547890 eV

  energy without entropy =     -189.01162124  energy(sigma->0) =     -189.01355007


--------------------------------------------------------------------------------------------------------




--------------------------------------- Iteration      1(   5)  ---------------------------------------


     EDDAV:  cpu time      4.2218: real time      4.2427
       DOS:  cpu time      0.0090: real time      4.9659
    CHARGE:  cpu time      0.0967: real time      0.0972
    MIXING:  cpu time      0.0003: real time      0.0003
    --------------------------------------------
      LOOP:  cpu time      4.3277: real time      9.3060

 eigenvalue-minimisations  : 23832
 total energy-change (2. order) :-0.5439314E+00  (-0.5396179E+00)
 number of electron     203.9999802 magnetization 
 augmentation part       39.5301872 magnetization 

 Broyden mixing:
  rms(total) = 0.50675E+01    rms(broyden)= 0.50664E+01
  rms(prec ) = 0.55686E+01
  weight for this iteration     100.00

 Free energy of the ion-electron system (eV)
  ---------------------------------------------------
  alpha Z        PSCENC =      1778.74691169
  Ewald energy   TEWEN  =    -20798.14155924
  -Hartree energ DENC   =     -3833.64559604
  -exchange      EXHF   =         0.00000000
  -V(xc)+E(xc)   XCENC  =       782.38190558
  PAW double counting   =     19191.93184909   -18895.09562579
  entropy T*S    EENTRO =        -0.00397047
  eigenvalues    EBANDS =     -2606.15300028
  atomic energy  EATOM  =     24190.41967516
  Solvation  Ediel_sol  =         0.00000000
  ---------------------------------------------------
  free energy    TOTEN  =      -189.55941033 eV

  energy without entropy =     -189.55543985  energy(sigma->0) =     -189.55742509


--------------------------------------------------------------------------------------------------------




--------------------------------------- Iteration      1(   6)  ---------------------------------------


    POTLOK:  cpu time      0.0047: real time      0.0048
    SETDIJ:  cpu time      0.0019: real time      0.0019
     EDDAV:  cpu time      3.6011: real time      3.6205
       DOS:  cpu time      0.0045: real time      0.0046
    CHARGE:  cpu time      0.0839: real time      0.0842
    MIXING:  cpu time      0.0003: real time      0.0003
    --------------------------------------------
      LOOP:  cpu time      3.6964: real time      3.7162

 eigenvalue-minimisations  : 18480
 total energy-change (2. order) : 0.7015506E+01  (-0.1810660E+01)
 number of electron     203.9999790 magnetization 
 augmentation part       41.1194697 magnetization 

 Broyden mixing:
  rms(total) = 0.19846E+01    rms(broyden)= 0.19844E+01
  rms(prec ) = 0.24246E+01
  weight for this iteration     100.00

 eigenvalues of (default mixing * dielectric matrix)
  average eigenvalue GAMMA=   1.4627
  1.4627

 Free energy of the ion-electron system (eV)
  ---------------------------------------------------
  alpha Z        PSCENC =      1778.74691169
  Ewald energy   TEWEN  =    -20798.14155924
  -Hartree energ DENC   =     -3626.31573377
  -exchange      EXHF   =         0.00000000
  -V(xc)+E(xc)   XCENC  =       772.01000513
  PAW double counting   =     22750.06935319   -22476.26654183
  entropy T*S    EENTRO =        -0.00466905
  eigenvalues    EBANDS =     -2773.06134609
  atomic energy  EATOM  =     24190.41967516
  Solvation  Ediel_sol  =         0.00000000
  ---------------------------------------------------
  free energy    TOTEN  =      -182.54390482 eV

  energy without entropy =     -182.53923577  energy(sigma->0) =     -182.54157029


--------------------------------------------------------------------------------------------------------




--------------------------------------- Iteration      1(   7)  ---------------------------------------


    POTLOK:  cpu time      0.0046: real time      0.0048
    SETDIJ:  cpu time      0.0017: real time      0.0017
     EDDAV:  cpu time      4.0617: real time      4.0801
       DOS:  cpu time      0.0045: real time      0.0045
    CHARGE:  cpu time      0.0854: real time      0.0857
    MIXING:  cpu time      0.0003: real time      0.0003
    --------------------------------------------
      LOOP:  cpu time      4.1583: real time      4.1771

 eigenvalue-minimisations  : 22848
 total energy-change (2. order) :-0.5063518E+00  (-0.1628533E+01)
 number of electron     203.9999798 magnetization 
 augmentation part       40.9234352 magnetization 

 Broyden mixing:
  rms(total) = 0.11250E+01    rms(broyden)= 0.11247E+01
  rms(prec ) = 0.25631E+01
  weight for this iteration     100.00

 eigenvalues of (default mixing * dielectric matrix)
  average eigenvalue GAMMA=   1.1114
  1.6608  0.5620

 Free energy of the ion-electron system (eV)
  ---------------------------------------------------
  alpha Z        PSCENC =      1778.74691169
  Ewald energy   TEWEN  =    -20798.14155924
  -Hartree energ DENC   =     -3562.43535837
  -exchange      EXHF   =         0.00000000
  -V(xc)+E(xc)   XCENC  =       768.29471922
  PAW double counting   =     25119.65181298   -24853.64838316
  entropy T*S    EENTRO =        -0.00444297
  eigenvalues    EBANDS =     -2825.93363190
  atomic energy  EATOM  =     24190.41967516
  Solvation  Ediel_sol  =         0.00000000
  ---------------------------------------------------
  free energy    TOTEN  =      -183.05025659 eV

  energy without entropy =     -183.04581362  energy(sigma->0) =     -183.04803511


--------------------------------------------------------------------------------------------------------




--------------------------------------- Iteration      1(   8)  ---------------------------------------


    POTLOK:  cpu time      0.0046: real time      0.0048
    SETDIJ:  cpu time      0.0017: real time      0.0017
     EDDAV:  cpu time      3.5311: real time      3.5460
       DOS:  cpu time      0.0045: real time      0.0045
    CHARGE:  cpu time      0.0843: real time      0.0846
    MIXING:  cpu time      0.0002: real time      0.0002
    --------------------------------------------
      LOOP:  cpu time      3.6265: real time      3.6419

 eigenvalue-minimisations  : 19224
 total energy-change (2. order) : 0.2402801E+01  (-0.7315666E+00)
 number of electron     203.9999794 magnetization 
 augmentation part       41.3283285 magnetization 

 Broyden mixing:
  rms(total) = 0.39420E+00    rms(broyden)= 0.39361E+00
  rms(prec ) = 0.56705E+00
  weight for this iteration     100.00

 eigenvalues of (default mixing * dielectric matrix)
  average eigenvalue GAMMA=   1.0876
  1.7877  1.0614  0.4136

 Free energy of the ion-electron system (eV)
  ---------------------------------------------------
  alpha Z        PSCENC =      1778.74691169
  Ewald energy   TEWEN  =    -20798.14155924
  -Hartree energ DENC   =     -3524.21399756
  -exchange      EXHF   =         0.00000000
  -V(xc)+E(xc)   XCENC  =       766.61098307
  PAW double counting   =     25986.02762857   -25723.84673409
  entropy T*S    EENTRO =        -0.00377302
  eigenvalues    EBANDS =     -2856.24659016
  atomic energy  EATOM  =     24190.41967516
  Solvation  Ediel_sol  =         0.00000000
  ---------------------------------------------------
  free energy    TOTEN  =      -180.64745558 eV

  energy without entropy =     -180.64368256  energy(sigma->0) =     -180.64556907


--------------------------------------------------------------------------------------------------------




--------------------------------------- Iteration      1(   9)  ---------------------------------------


    POTLOK:  cpu time      0.0046: real time      0.0047
    SETDIJ:  cpu time      0.0017: real time      0.0017
     EDDAV:  cpu time      3.7683: real time      3.7847
       DOS:  cpu time      0.0082: real time      5.5663
    CHARGE:  cpu time      0.1202: real time      0.1206
    MIXING:  cpu time      0.0003: real time      0.0003
    --------------------------------------------
      LOOP:  cpu time      3.9033: real time      9.4783

 eigenvalue-minimisations  : 20896
 total energy-change (2. order) :-0.4664207E-01  (-0.1362065E+00)
 number of electron     203.9999794 magnetization 
 augmentation part       41.4101093 magnetization 

 Broyden mixing:
  rms(total) = 0.31119E+00    rms(broyden)= 0.31111E+00
  rms(prec ) = 0.45571E+00
  weight for this iteration     100.00

 eigenvalues of (default mixing * dielectric matrix)
  average eigenvalue GAMMA=   1.1558
  2.1217  1.5855  0.5431  0.3729

 Free energy of the ion-electron system (eV)
  ---------------------------------------------------
  alpha Z        PSCENC =      1778.74691169
  Ewald energy   TEWEN  =    -20798.14155924
  -Hartree energ DENC   =     -3518.78793693
  -exchange      EXHF   =         0.00000000
  -V(xc)+E(xc)   XCENC  =       766.36512331
  PAW double counting   =     26332.42461522   -26069.68344532
  entropy T*S    EENTRO =        -0.00382443
  eigenvalues    EBANDS =     -2862.03365711
  atomic energy  EATOM  =     24190.41967516
  Solvation  Ediel_sol  =         0.00000000
  ---------------------------------------------------
  free energy    TOTEN  =      -180.69409765 eV

  energy without entropy =     -180.69027322  energy(sigma->0) =     -180.69218543


--------------------------------------------------------------------------------------------------------




--------------------------------------- Iteration      1(  10)  ---------------------------------------


    POTLOK:  cpu time      0.0047: real time      0.0048
    SETDIJ:  cpu time      0.0018: real time      0.0018
     EDDAV:  cpu time      3.8104: real time      3.8276
       DOS:  cpu time      0.0046: real time      0.0046
    CHARGE:  cpu time      0.0839: real time      0.0842
    MIXING:  cpu time      0.0003: real time      0.0003
    --------------------------------------------
      LOOP:  cpu time      3.9058: real time      3.9234

 eigenvalue-minimisations  : 21048
 total energy-change (2. order) : 0.4429249E-01  (-0.3418182E-01)
 number of electron     203.9999795 magnetization 
 augmentation part       41.3179418 magnetization 

 Broyden mixing:
  rms(total) = 0.12482E+00    rms(broyden)= 0.12477E+00
  rms(prec ) = 0.18091E+00
  weight for this iteration     100.00

 eigenvalues of (default mixing * dielectric matrix)
  average eigenvalue GAMMA=   1.1604
  2.5013  1.6715  0.8307  0.4265  0.3720

 Free energy of the ion-electron system (eV)
  ---------------------------------------------------
  alpha Z        PSCENC =      1778.74691169
  Ewald energy   TEWEN  =    -20798.14155924
  -Hartree energ DENC   =     -3522.23579389
  -exchange      EXHF   =         0.00000000
  -V(xc)+E(xc)   XCENC  =       766.49874128
  PAW double counting   =     26608.23190425   -26343.37323484
  entropy T*S    EENTRO =        -0.00375011
  eigenvalues    EBANDS =     -2860.79269944
  atomic energy  EATOM  =     24190.41967516
  Solvation  Ediel_sol  =         0.00000000
  ---------------------------------------------------
  free energy    TOTEN  =      -180.64980516 eV

  energy without entropy =     -180.64605504  energy(sigma->0) =     -180.64793010


--------------------------------------------------------------------------------------------------------




--------------------------------------- Iteration      1(  11)  ---------------------------------------


    POTLOK:  cpu time      0.0046: real time      0.0048
    SETDIJ:  cpu time      0.0018: real time      0.0018
     EDDAV:  cpu time      3.8713: real time      3.8920
       DOS:  cpu time      0.0045: real time      0.0046
    CHARGE:  cpu time      0.0965: real time      0.0969
    MIXING:  cpu time      0.0005: real time      0.0005
    --------------------------------------------
      LOOP:  cpu time      3.9792: real time      4.0004

 eigenvalue-minimisations  : 21656
 total energy-change (2. order) : 0.4245670E-03  (-0.7236075E-02)
 number of electron     203.9999795 magnetization 
 augmentation part       41.2969289 magnetization 

 Broyden mixing:
  rms(total) = 0.44109E-01    rms(broyden)= 0.44036E-01
  rms(prec ) = 0.10743E+00
  weight for this iteration     100.00

 eigenvalues of (default mixing * dielectric matrix)
  average eigenvalue GAMMA=   1.0877
  2.5200  1.6946  0.7522  0.7522  0.4368  0.3703

 Free energy of the ion-electron system (eV)
  ---------------------------------------------------
  alpha Z        PSCENC =      1778.74691169
  Ewald energy   TEWEN  =    -20798.14155924
  -Hartree energ DENC   =     -3524.41273815
  -exchange      EXHF   =         0.00000000
  -V(xc)+E(xc)   XCENC  =       766.59693830
  PAW double counting   =     26765.48653853   -26498.92980422
  entropy T*S    EENTRO =        -0.00387971
  eigenvalues    EBANDS =     -2860.41146294
  atomic energy  EATOM  =     24190.41967516
  Solvation  Ediel_sol  =         0.00000000
  ---------------------------------------------------
  free energy    TOTEN  =      -180.64938059 eV

  energy without entropy =     -180.64550088  energy(sigma->0) =     -180.64744073


--------------------------------------------------------------------------------------------------------




--------------------------------------- Iteration      1(  12)  ---------------------------------------


    POTLOK:  cpu time      0.0200: real time      0.0204
    SETDIJ:  cpu time      0.0023: real time      0.0023
     EDDAV:  cpu time      3.7378: real time      3.7545
       DOS:  cpu time      0.0083: real time      6.7010
    CHARGE:  cpu time      0.1192: real time      0.1197
    MIXING:  cpu time      0.0003: real time      0.0003
    --------------------------------------------
      LOOP:  cpu time      3.8879: real time     10.5982

[...]
     25     -25.4435      2.00000
     26     -25.4415      2.00000
     27     -25.4092      2.00000
     28     -25.3766      2.00000
     29     -25.3484      2.00000
     30     -25.0080      2.00000
     31     -24.8920      2.00000
     32     -24.8295      2.00000
     33     -24.7735      2.00000
     34     -24.7555      2.00000
     35     -24.7452      2.00000
     36     -24.7166      2.00000
     37     -24.7076      2.00000
     38     -24.6891      2.00000
     39     -24.6717      2.00000
     40     -24.6421      2.00000
     41     -24.6279      2.00000
     42     -24.5735      2.00000
     43     -24.4465      2.00000
     44     -24.3895      2.00000
     45     -21.7307      2.00000
     46     -21.6449      2.00000
     47     -21.5807      2.00000
     48     -21.4542      2.00000
     49     -21.4101      2.00000
     50     -21.3915      2.00000
     51     -21.3821      2.00000
     52     -21.3710      2.00000
     53     -21.3558      2.00000
     54     -21.2313      2.00000
     55     -21.1994      2.00000
     56     -21.1539      2.00000
     57     -21.0377      2.00000
     58     -21.0158      2.00000
     59     -20.9387      2.00000
     60       3.8328      2.00000
     61       4.5089      2.00000
     62       4.6262      2.00000
     63       4.8572      2.00000
     64       5.3312      2.00000
     65       5.3899      2.00000
     66       5.6167      2.00000
     67       6.2234      2.00000
     68       6.4404      2.00000
     69       6.4537      2.00000
     70       6.5043      2.00000
     71       6.5419      2.00000
     72       6.5683      2.00000
     73       6.6835      2.00000
     74       6.7406      2.00000
     75       6.7580      2.00000
     76       6.7831      2.00000
     77       6.8501      2.00000
     78       6.8742      2.00000
     79       6.9039      2.00000
     80       7.2267      2.00000
     81       7.2515      2.00000
     82       7.3557      2.00000
     83       7.3787      2.00000
     84       7.4292      2.00000
     85       7.4375      2.00000
     86       7.4938      2.00000
     87       7.5222      2.00000
     88       7.5300      2.00000
     89       7.5555      2.00000
     90       7.6068      2.00000
     91       7.6391      2.00000
     92       7.6525      2.00000
     93       7.6796      2.00000
     94       7.6981      2.00000
     95       7.7353      2.00000
     96       7.7414      2.00000
     97       7.7886      2.00000
     98       7.8409      2.00000
     99       7.8746      2.00000
    100       7.9531      2.00000
    101       7.9957      2.00000
    102       8.0035      2.00000
    103       8.0364      2.00000
    104       8.0639      2.00000
    105       8.0895      2.00000
    106       8.1161      2.00000
    107       8.5271      2.00000
    108      11.1749      0.00000
    109      11.2028      0.00000
    110      11.4386      0.00000
    111      11.4769      0.00000
    112      11.5044      0.00000
    113      11.5695      0.00000
    114      11.6956      0.00000
    115      11.7795      0.00000
    116      11.8025      0.00000
    117      11.8500      0.00000
    118      11.9130      0.00000
    119      11.9366      0.00000
    120      11.9983      0.00000
    121      12.0492      0.00000
    122      12.0878      0.00000
    123      12.2227      0.00000
    124      12.2935      0.00000

 k-point    63 :       0.4000   -0.4000    0.4000
  band No.  band energies     occupation 
      1     -64.3809      2.00000
      2     -64.3583      2.00000
      3     -51.4825      2.00000
      4     -51.3206      2.00000
      5     -51.2907      2.00000
      6     -51.2864      2.00000
      7     -45.3226      2.00000
      8     -45.2932      2.00000
      9     -45.2748      2.00000
     10     -45.1428      2.00000
     11     -45.1012      2.00000
     12     -28.6442      2.00000
     13     -28.6135      2.00000
     14     -28.5960      2.00000
     15     -28.5930      2.00000
     16     -28.5862      2.00000
     17     -28.5788      2.00000
     18     -25.7266      2.00000
     19     -25.7115      2.00000
     20     -25.6311      2.00000
     21     -25.5307      2.00000
     22     -25.5178      2.00000
     23     -25.4951      2.00000
     24     -25.4752      2.00000
     25     -25.4452      2.00000
     26     -25.4406      2.00000
     27     -25.4162      2.00000
     28     -25.3684      2.00000
     29     -25.3411      2.00000
     30     -25.0063      2.00000
     31     -24.8927      2.00000
     32     -24.8319      2.00000
     33     -24.7804      2.00000
     34     -24.7582      2.00000
     35     -24.7457      2.00000
     36     -24.7224      2.00000
     37     -24.7082      2.00000
     38     -24.6871      2.00000
     39     -24.6677      2.00000
     40     -24.6404      2.00000
     41     -24.6253      2.00000
     42     -24.5759      2.00000
     43     -24.4410      2.00000
     44     -24.3892      2.00000
     45     -21.7307      2.00000
     46     -21.6465      2.00000
     47     -21.5807      2.00000
     48     -21.4539      2.00000
     49     -21.4151      2.00000
     50     -21.3917      2.00000
     51     -21.3800      2.00000
     52     -21.3676      2.00000
     53     -21.3541      2.00000
     54     -21.2314      2.00000
     55     -21.1996      2.00000
     56     -21.1542      2.00000
     57     -21.0377      2.00000
     58     -21.0162      2.00000
     59     -20.9388      2.00000
     60       3.8433      2.00000
     61       4.4922      2.00000
     62       4.5742      2.00000
     63       4.9508      2.00000
     64       5.1969      2.00000
     65       5.5134      2.00000
     66       5.6239      2.00000
     67       6.1819      2.00000
     68       6.4294      2.00000
     69       6.4578      2.00000
     70       6.5009      2.00000
     71       6.5675      2.00000
     72       6.5760      2.00000
     73       6.6780      2.00000
     74       6.7399      2.00000
     75       6.7669      2.00000
     76       6.7844      2.00000
     77       6.8271      2.00000
     78       6.8892      2.00000
     79       6.8980      2.00000
     80       7.2276      2.00000
     81       7.2411      2.00000
     82       7.3513      2.00000
     83       7.3865      2.00000
     84       7.4312      2.00000
     85       7.4584      2.00000
     86       7.4797      2.00000
     87       7.5067      2.00000
     88       7.5397      2.00000
     89       7.5550      2.00000
     90       7.6028      2.00000
     91       7.6466      2.00000
     92       7.6556      2.00000
     93       7.6759      2.00000
     94       7.7080      2.00000
     95       7.7178      2.00000
     96       7.7374      2.00000
     97       7.7715      2.00000
     98       7.8516      2.00000
     99       7.8751      2.00000
    100       7.9476      2.00000
    101       8.0007      2.00000
    102       8.0144      2.00000
    103       8.0448      2.00000
    104       8.0597      2.00000
    105       8.0816      2.00000
    106       8.1205      2.00000
    107       8.5303      2.00000
    108      11.1468      0.00000
    109      11.2027      0.00000
    110      11.4687      0.00000
    111      11.5025      0.00000
    112      11.5204      0.00000
    113      11.5943      0.00000
    114      11.6995      0.00000
    115      11.7344      0.00000
    116      11.7988      0.00000
    117      11.8624      0.00000
    118      11.9193      0.00000
    119      11.9670      0.00000
    120      12.0000      0.00000
    121      12.0280      0.00000
    122      12.0587      0.00000
    123      12.2007      0.00000
    124      12.2994      0.00000


--------------------------------------------------------------------------------------------------------


 soft charge-density along one line, spin component           1
         0         1         2         3         4         5         6         7         8         9
 total charge-density along one line
 
 pseudopotential strength for first ion, spin component:           1
  5.782 -20.475   0.001  -0.001  -0.000  -0.002   0.001   0.001
-20.475   9.375   0.001  -0.001  -0.000  -0.000   0.000   0.000
  0.001   0.001  -9.888   0.000   0.001   6.155   0.000  -0.001
 -0.001  -0.001   0.000  -9.888   0.000   0.000   6.155  -0.000
 -0.000  -0.000   0.001   0.000  -9.887  -0.001  -0.000   6.154
 -0.002  -0.000   6.155   0.000  -0.001   7.843   0.000   0.001
  0.001   0.000   0.000   6.155  -0.000   0.000   7.843   0.000
  0.001   0.000  -0.001  -0.000   6.154   0.001   0.000   7.844
  0.001   0.000  -0.000  -0.000   0.001   0.001   0.001  -0.001
  0.000  -0.000  -0.001   0.001  -0.000   0.001  -0.001   0.001
  0.000  -0.000  -0.000  -0.001   0.000   0.000   0.001  -0.000
  0.000   0.000  -0.000  -0.000  -0.001   0.001   0.001   0.001
  0.000   0.000  -0.001  -0.000  -0.000   0.001   0.000   0.000
  0.001   0.000  -0.000  -0.001   0.001   0.001   0.001  -0.002
  0.000  -0.000  -0.001   0.001  -0.001   0.001  -0.002   0.001
  0.000  -0.000  -0.001  -0.001   0.000   0.001   0.001  -0.000
  0.000   0.000  -0.001  -0.000  -0.001   0.001   0.001   0.001
  0.000   0.000  -0.001  -0.000  -0.000   0.001   0.000   0.001
 total augmentation occupancy for first ion, spin component:           1
  1.995  -0.048   0.000   0.000   0.000   0.000   0.000   0.000   0.004   0.003  -0.001  -0.002   0.001  -0.003  -0.002   0.001
 -0.048   1.333   0.000   0.001   0.003  -0.002   0.001  -0.001   0.019  -0.007  -0.003  -0.002   0.010  -0.009   0.011   0.003
  0.000   0.000   1.996  -0.000  -0.000  -0.031   0.001   0.001   0.009   0.005  -0.001   0.012  -0.002  -0.005  -0.003   0.001
  0.000   0.001  -0.000   1.996   0.000   0.001  -0.032  -0.001   0.012  -0.001   0.001   0.008   0.000  -0.008   0.001  -0.001
  0.000   0.003  -0.000   0.000   1.996   0.001  -0.001  -0.031  -0.001   0.012  -0.002   0.005   0.002   0.001  -0.008   0.001
  0.000  -0.002  -0.031   0.001   0.001   0.069  -0.001  -0.001  -0.015  -0.006   0.003  -0.011   0.004   0.009   0.003  -0.001
  0.000   0.001   0.001  -0.032  -0.001  -0.001   0.070   0.001  -0.009  -0.004   0.003  -0.013  -0.000   0.006   0.002  -0.001
  0.000  -0.001   0.001  -0.001  -0.031  -0.001   0.001   0.067  -0.004  -0.012  -0.000  -0.005   0.002   0.002   0.007   0.000
  0.004   0.019   0.009   0.012  -0.001  -0.015  -0.009  -0.004   3.281   0.035  -0.032  -0.057  -0.000  -1.375  -0.022   0.015
  0.003  -0.007   0.005  -0.001   0.012  -0.006  -0.004  -0.012   0.035   3.266   0.013   0.027  -0.022  -0.022  -1.370  -0.006
 -0.001  -0.003  -0.001   0.001  -0.002   0.003   0.003  -0.000  -0.032   0.013   2.622  -0.008  -0.020   0.014  -0.005  -1.182
 -0.002  -0.002   0.012   0.008   0.005  -0.011  -0.013  -0.005  -0.057   0.027  -0.008   3.268  -0.014   0.037  -0.011   0.002
  0.001   0.010  -0.002   0.000   0.002   0.004  -0.000   0.002  -0.000  -0.022  -0.020  -0.014   2.640  -0.000   0.009   0.008
 -0.003  -0.009  -0.005  -0.008   0.001   0.009   0.006   0.002  -1.375  -0.022   0.014   0.037  -0.000   0.587   0.012  -0.007
 -0.002   0.011  -0.003   0.001  -0.008   0.003   0.002   0.007  -0.022  -1.370  -0.005  -0.011   0.009   0.012   0.587   0.002
  0.001   0.003   0.001  -0.001   0.001  -0.001  -0.001   0.000   0.015  -0.006  -1.182   0.002   0.008  -0.007   0.002   0.541
  0.002  -0.004  -0.008  -0.005  -0.003   0.006   0.009   0.003   0.037  -0.011   0.002  -1.370   0.004  -0.021   0.005  -0.001
 -0.001  -0.005   0.001   0.000  -0.002  -0.002   0.000  -0.000  -0.000   0.009   0.008   0.004  -1.189   0.000  -0.004  -0.003


------------------------ aborting loop because EDIFF is reached ----------------------------------------


    CHARGE:  cpu time      0.1110: real time      0.1115
    FORLOC:  cpu time      0.0005: real time      0.0005
    FORNL :  cpu time      0.7885: real time      0.8267
    STRESS:  cpu time      1.0151: real time      1.0189
    FORCOR:  cpu time      0.0053: real time      0.0053
    FORHAR:  cpu time      0.0015: real time      0.0017
    MIXING:  cpu time      0.0006: real time      0.0006
    OFIELD:  cpu time      0.0000: real time      0.0000

  FORCE on cell =-STRESS in cart. coord.  units (eV):
  Direction    XX          YY          ZZ          XY          YZ          ZX
  --------------------------------------------------------------------------------------
  Alpha Z  1778.74691  1778.74691  1778.74691
  Ewald   -6920.03259 -6918.95839 -6959.21653    -3.16152     3.16152   -15.80762
  Hartree  1187.12282  1187.77313  1150.18941    -3.17819     2.84034   -13.95954
  E(xc)    -929.85824  -929.86006  -929.86099     0.00826     0.00786     0.00852
  Local    1544.42406  1543.01289  1620.77130     5.92191    -6.38021    29.15638
  n-local  -412.18208  -411.90559  -412.39579     0.25120    -0.92045    -0.08530
  augment   469.45697   469.24646   469.42492     0.06754     0.19811     0.17132
  Kinetic  3262.30990  3261.55039  3262.01853    -0.23288     1.08125     0.30540
  Fock        0.00000     0.00000     0.00000     0.00000     0.00000     0.00000
  -------------------------------------------------------------------------------------
  Total     -20.01223   -20.39425   -20.32222    -0.32368    -0.01157    -0.21084
  in kB    -112.54556  -114.69398  -114.28892    -1.82034    -0.06505    -1.18572
  external pressure =     -113.84 kB  Pullay stress =        0.00 kB


 VOLUME and BASIS-vectors are now :
 -----------------------------------------------------------------------------
  energy-cutoff  :      250.00
  volume of cell :      284.89
      direct lattice vectors                 reciprocal lattice vectors
     6.580000000  0.000000000  0.000000000     0.151975684  0.000000000  0.000000000
     0.000000000  6.580000000  0.000000000     0.000000000  0.151975684  0.000000000
     0.000000000  0.000000000  6.580000000     0.000000000  0.000000000  0.151975684

  length of vectors
     6.580000000  6.580000000  6.580000000     0.151975684  0.151975684  0.151975684


 FORCES acting on ions
    electron-ion (+dipol)            ewald-force                    non-local-force                 convergence-correction
 -----------------------------------------------------------------------------------------------
   0.986E+01 0.308E+02 -.309E+02   -.102E+02 -.306E+02 0.306E+02   0.229E+00 0.687E-01 0.808E-01   0.601E-05 0.171E-04 0.362E-05
   0.105E+02 -.105E+02 0.513E+02   -.102E+02 0.102E+02 -.510E+02   -.453E-01 0.563E-01 0.654E-01   -.301E-04 -.889E-05 0.124E-04
   -.986E+01 0.308E+02 -.309E+02   0.102E+02 -.306E+02 0.306E+02   -.248E+00 0.234E-01 0.104E+00   -.656E-05 0.217E-04 0.270E-05
   0.987E+01 -.308E+02 0.309E+02   -.102E+02 0.306E+02 -.306E+02   0.225E+00 -.518E-01 -.896E-01   0.541E-05 -.210E-04 -.738E-05
   0.105E+02 0.105E+02 -.512E+02   -.102E+02 -.102E+02 0.510E+02   -.575E-01 -.658E-01 -.702E-01   -.326E-04 0.119E-04 -.111E-04
   -.107E+02 -.330E+02 -.332E+02   0.110E+02 0.329E+02 0.329E+02   -.138E+00 -.540E-01 0.546E-01   -.716E-05 -.168E-04 0.697E-05
   0.111E+02 0.111E+02 0.549E+02   -.110E+02 -.110E+02 -.549E+02   0.335E-01 0.400E-01 0.137E+00   -.335E-04 0.147E-04 0.827E-05
   -.111E+02 0.111E+02 -.549E+02   0.110E+02 -.110E+02 0.549E+02   -.563E-01 0.397E-01 -.111E+00   0.335E-04 0.114E-04 -.317E-05
   0.111E+02 -.111E+02 -.549E+02   -.110E+02 0.110E+02 0.549E+02   0.592E-01 -.503E-01 -.144E+00   -.330E-04 -.141E-04 -.892E-05
   -.829E+01 -.262E+02 0.262E+02   0.863E+01 0.259E+02 -.259E+02   -.161E+00 -.637E-02 -.102E+00   -.286E-05 -.158E-04 -.396E-05
   0.830E+01 -.262E+02 -.262E+02   -.863E+01 0.259E+02 0.259E+02   0.181E+00 -.146E-01 0.846E-01   0.759E-05 -.213E-04 0.218E-05
   -.834E+01 0.261E+02 0.262E+02   0.863E+01 -.259E+02 -.259E+02   -.107E+00 0.367E-01 -.423E-01   -.131E-05 0.172E-04 -.269E-05
   -.890E+01 -.890E+01 -.434E+02   0.863E+01 0.863E+01 0.431E+02   -.676E-03 0.227E-01 -.378E-01   0.232E-04 -.716E-05 -.603E-05
   0.832E+01 0.261E+02 0.262E+02   -.863E+01 -.259E+02 -.259E+02   0.145E+00 0.809E-02 -.724E-01   0.279E-05 0.182E-04 -.413E-05
   -.111E+02 -.111E+02 0.550E+02   0.110E+02 0.110E+02 -.549E+02   -.809E-01 -.550E-01 0.869E-01   0.317E-04 -.649E-05 0.409E-05
   -.112E+02 0.112E+02 0.551E+02   0.110E+02 -.110E+02 -.549E+02   -.126E-01 0.244E-02 -.400E-02   0.341E-04 0.815E-05 0.797E-05
 -----------------------------------------------------------------------------------------------
   0.351E-01 -.149E-03 0.599E-01   -.103E-12 0.124E-12 -.568E-13   -.351E-01 0.133E-03 -.599E-01   -.274E-05 0.877E-05 0.814E-06
 
 
 POSITION                                       TOTAL-FORCE (eV/Angst)
 -----------------------------------------------------------------------------------
      1.64500      1.64500      4.93500        -0.106972      0.229088     -0.197827
      3.29000      0.00000      3.29000         0.207261     -0.198724      0.347698
      4.93500      1.64500      4.93500         0.088679      0.238188     -0.194258
      1.64500      4.93500      1.64500        -0.104474     -0.248681      0.177363
      3.29000      3.29000      0.00000         0.218990      0.223147     -0.324449
      4.93500      4.93500      4.93500         0.176952     -0.150808     -0.197736
      3.29000      3.29000      3.29000         0.163994      0.173174      0.155317
      0.00000      3.29000      0.00000        -0.160910      0.152778     -0.138922
      3.29000      0.00000      0.00000         0.155708     -0.152570     -0.126694
      4.93500      4.93500      1.64500         0.178256     -0.271496      0.205067
      1.64500      4.93500      4.93500        -0.145391     -0.286598     -0.241434
      4.93500      1.64500      1.64500         0.182362      0.256195      0.230906
      0.00000      0.00000      0.00000        -0.269821     -0.247465     -0.314655
      1.64500      1.64500      1.64500        -0.165593      0.252543      0.209731
      0.00000      0.00000      3.29000        -0.202910     -0.180432      0.185135
      0.00000      3.29000      3.29000        -0.216131      0.211662      0.224757
 -----------------------------------------------------------------------------------
    total drift:                               -0.000010     -0.000007      0.000003


--------------------------------------------------------------------------------------------------------



  FREE ENERGIE OF THE ION-ELECTRON SYSTEM (eV)
  ---------------------------------------------------
  free  energy   TOTEN  =      -180.64525384 eV

  energy  without entropy=     -180.64144894  energy(sigma->0) =     -180.64335139
 


--------------------------------------------------------------------------------------------------------


    POTLOK:  cpu time      0.0063: real time      0.0412


--------------------------------------------------------------------------------------------------------


     LOOP+:  cpu time     97.2181: real time    144.1164
    4ORBIT:  cpu time      0.0000: real time      0.0000

 total amount of memory used by VASP MPI-rank0    47987. kBytes
=======================================================================

   base      :      30000. kBytes
   nonl-proj :       8332. kBytes
   fftplans  :        456. kBytes
   grid      :        919. kBytes
   one-center:         31. kBytes
   wavefun   :       8249. kBytes
 
  
  
 General timing and accounting informations for this job:
 ========================================================
  
                  Total CPU time used (sec):      102.538
                            User time (sec):      101.174
                          System time (sec):        1.365
                         Elapsed time (sec):      150.803
  
                   Maximum memory used (kb):       90020.
                   Average memory used (kb):          N/A
  
                          Minor page faults:        10408
                          Major page faults:            0
                 Voluntary context switches:          286
