 vasp.6.3.1 04May22 (build Jul 26 2022 04:02:40) complex                        
  
 executed on             LinuxIFC date 2023.12.01  03:51:21
 running on   48 total cores
 distrk:  each k-point on   48 cores,    1 groups
 distr:  one band on NCORE=  12 cores,    4 groups


--------------------------------------------------------------------------------------------------------


 INCAR:
   ISTART = 0
   NWRITE = 2
   PREC = Accurate
   ENCUT = 250
   GGA = PE
   NSW = 0
   ISIF = 2
   ISYM = 2
   NBLOCK = 1
   KBLOCK = 1
   IBRION = -1
   NELM = 80
   EDIFF = 1E-08
   EDIFFG = -0.01
   ALGO = Normal
   LDIAG = .TRUE.
   LREAL = .FALSE.
   ISMEAR = 0
   SIGMA = 0.02
   ICHARG = 2
   LPLANE = .TRUE.
   NPAR = 4
   LSCALU = .FALSE.
   NSIM = 4
   LWAVE = .FALSE.
   LCHARG = .FALSE.
   ICORELEVEL = 1

 POTCAR:    PAW_PBE Nb_sv 25May2007               
 POTCAR:    PAW_PBE Mo_sv 02Feb2006               
 POTCAR:    PAW_PBE Ta_pv 07Sep2000               
 POTCAR:    PAW_PBE W_sv 04Sep2015                
 POTCAR:    PAW_PBE Nb_sv 25May2007               
   SHA256 =  0e8fc07c9fcd1164cf2ade22d0399fd28f85e91cd773dfa6cf24839a48c95e24 Nb_sv/POTCAR          
   COPYR  = (c) Copyright 25May2007 Georg Kresse                                                    
   COPYR  = This file is part of the software VASP. Any use, copying, and all other rights are regul
   COPYR  = If you do not have a valid VASP license, you may not use, copy or distribute this file. 
   VRHFIN =Nb: 4p5s4d                                                                               
   LEXCH  = PE                                                                                      
   EATOM  =  1555.1913 eV,  114.3033 Ry                                                             
                                                                                                    
   TITEL  = PAW_PBE Nb_sv 25May2007                                                                 
   LULTRA =        F    use ultrasoft PP ?                                                          
   IUNSCR =        1    unscreen: 0-lin 1-nonlin 2-no                                               
   RPACOR =    1.800    partial core radius                                                         
   POMASS =   92.910; ZVAL   =   13.000    mass and valenz                                          
   RCORE  =    2.400    outmost cutoff radius                                                       
   RWIGS  =    2.400; RWIGS  =    1.270    wigner-seitz radius (au A)                               
   ENMAX  =  293.235; ENMIN  =  219.927 eV                                                          
   ICORE  =        3    local potential                                                             
   LCOR   =        T    correct aug charges                                                         
   LPAW   =        T    paw PP                                                                      
   EAUG   =  455.659                                                                                
   DEXC   =    0.000                                                                                
   RMAX   =    2.456    core radius for proj-oper                                                   
   RAUG   =    1.300    factor for augmentation sphere                                              
   RDEP   =    2.451    radius for radial grids                                                     
   RDEPT  =    1.956    core radius for aug-charge                                                  
                                                                                                    
   Atomic configuration                                                                             
   11 entries                                                                                       
     n  l   j            E        occ.                                                              
     1  0  0.50    -18805.2457   2.0000                                                             
     2  0  0.50     -2630.2869   2.0000                                                             
     2  1  1.50     -2348.4046   6.0000                                                             
     3  0  0.50      -438.8757   2.0000                                                             
     3  1  1.50      -346.7588   6.0000                                                             
     3  2  2.50      -196.2560  10.0000                                                             
     4  0  0.50       -58.3859   2.0000                                                             
     5  0  0.50        -3.9816   1.0000                                                             
     4  1  1.50       -34.5141   6.0000                                                             
     4  2  2.50        -3.0408   4.0000                                                             
     4  3  2.50        -1.3606   0.0000                                                             
   Description                                                                                      
     l       E           TYP  RCUT    TYP  RCUT                                                     
     0    -58.3859094     23  2.200                                                                 
     0     -3.9816262     23  2.200                                                                 
     1    -34.5140738     23  2.200                                                                 
     1     13.6058260     23  2.200                                                                 
     2     -3.0408010     23  2.200                                                                 
     2     -0.1283038     23  2.200                                                                 
     3     -1.3605826     23  2.400                                                                 
  local pseudopotential read in
  partial core-charges read in
  partial kinetic energy density read in
  atomic valenz-charges read in
  non local Contribution for L=           0  read in
    real space projection operators read in
  non local Contribution for L=           0  read in
    real space projection operators read in
  non local Contribution for L=           1  read in
    real space projection operators read in
  non local Contribution for L=           1  read in
    real space projection operators read in
  non local Contribution for L=           2  read in
    real space projection operators read in
  non local Contribution for L=           2  read in
    real space projection operators read in
    PAW grid and wavefunctions read in
 
   number of l-projection  operators is LMAX  =           6
   number of lm-projection operators is LMMAX =          18
 
 POTCAR:    PAW_PBE Mo_sv 02Feb2006               
   SHA256 =  2731df97e41766cc617548c5a8267718fdef1f509ac6bafa01e745abea2bdfaa Mo_sv/POTCAR          
   COPYR  = (c) Copyright 02Feb2006 Georg Kresse                                                    
   COPYR  = This file is part of the software VASP. Any use, copying, and all other rights are regul
   COPYR  = If you do not have a valid VASP license, you may not use, copy or distribute this file. 
   VRHFIN =Mo: 4p5s4d                                                                               
   LEXCH  = PE                                                                                      
   EATOM  =  1862.2866 eV,  136.8742 Ry                                                             
                                                                                                    
   TITEL  = PAW_PBE Mo_sv 02Feb2006                                                                 
   LULTRA =        F    use ultrasoft PP ?                                                          
   IUNSCR =        1    unscreen: 0-lin 1-nonlin 2-no                                               
   RPACOR =    2.200    partial core radius                                                         
   POMASS =   95.940; ZVAL   =   14.000    mass and valenz                                          
   RCORE  =    2.500    outmost cutoff radius                                                       
   RWIGS  =    2.750; RWIGS  =    1.455    wigner-seitz radius (au A)                               
   ENMAX  =  242.676; ENMIN  =  182.007 eV                                                          
   ICORE  =        3    local potential                                                             
   LCOR   =        T    correct aug charges                                                         
   LPAW   =        T    paw PP                                                                      
   EAUG   =  446.014                                                                                
   DEXC   =    0.000                                                                                
   RMAX   =    2.563    core radius for proj-oper                                                   
   RAUG   =    1.300    factor for augmentation sphere                                              
   RDEP   =    2.641    radius for radial grids                                                     
   RDEPT  =    2.031    core radius for aug-charge                                                  
                                                                                                    
   Atomic configuration                                                                             
   11 entries                                                                                       
     n  l   j            E        occ.                                                              
     1  0  0.50    -19819.0341   2.0000                                                             
     2  0  0.50     -2799.0127   2.0000                                                             
     2  1  1.50     -2502.0276   6.0000                                                             
     3  0  0.50      -476.4449   2.0000                                                             
     3  1  1.50      -379.1496   6.0000                                                             
     3  2  2.50      -220.9367  10.0000                                                             
     4  0  0.50       -64.3378   2.0000                                                             
     5  0  0.50        -4.0862   1.0000                                                             
     4  1  1.50       -38.4773   6.0000                                                             
     4  2  2.50        -3.7535   5.0000                                                             
     4  3  2.50        -1.3606   0.0000                                                             
   Description                                                                                      
     l       E           TYP  RCUT    TYP  RCUT                                                     
     0    -64.3377829     23  2.100                                                                 
     0     -4.0861640     23  2.400                                                                 
     1    -38.4772993     23  2.100                                                                 
     1     13.6058260     23  2.100                                                                 
     2     -3.7534941     23  2.400                                                                 
     2     -5.1140767     23  2.400                                                                 
     3     -4.0817478     23  2.500                                                                 
  local pseudopotential read in
  partial core-charges read in
  partial kinetic energy density read in
  atomic valenz-charges read in
  non local Contribution for L=           0  read in
    real space projection operators read in
  non local Contribution for L=           0  read in
    real space projection operators read in
  non local Contribution for L=           1  read in
    real space projection operators read in
  non local Contribution for L=           1  read in
    real space projection operators read in
  non local Contribution for L=           2  read in
    real space projection operators read in
  non local Contribution for L=           2  read in
    real space projection operators read in
    PAW grid and wavefunctions read in
 
   number of l-projection  operators is LMAX  =           6
   number of lm-projection operators is LMMAX =          18
 
 POTCAR:    PAW_PBE Ta_pv 07Sep2000               
   SHA256 =  00d0a14a36c127416459414afb8617d9754996fffa60a2465888e660b20a452f Ta_pv/POTCAR          
   COPYR  = (c) Copyright 07Sep2000 Georg Kresse                                                    
   COPYR  = This file is part of the software VASP. Any use, copying, and all other rights are regul
   COPYR  = If you do not have a valid VASP license, you may not use, copy or distribute this file. 
   VRHFIN =Ta:  5p6s5d                                                                              
   LEXCH  = PE                                                                                      
   EATOM  =  1047.1984 eV,   76.9669 Ry                                                             
                                                                                                    
   TITEL  = PAW_PBE Ta_pv 07Sep2000                                                                 
   LULTRA =        F    use ultrasoft PP ?                                                          
   IUNSCR =        1    unscreen: 0-lin 1-nonlin 2-no                                               
   RPACOR =    2.330    partial core radius                                                         
   POMASS =  180.948; ZVAL   =   11.000    mass and valenz                                          
   RCORE  =    2.500    outmost cutoff radius                                                       
   RWIGS  =    2.840; RWIGS  =    1.503    wigner-seitz radius (au A)                               
   ENMAX  =  223.667; ENMIN  =  167.750 eV                                                          
   RCLOC  =    2.205    cutoff for local pot                                                        
   LCOR   =        T    correct aug charges                                                         
   LPAW   =        T    paw PP                                                                      
   EAUG   =  377.421                                                                                
   DEXC   =    0.000                                                                                
   RMAX   =    2.551    core radius for proj-oper                                                   
   RAUG   =    1.300    factor for augmentation sphere                                              
   RDEP   =    2.526    radius for radial grids                                                     
   RDEPT  =    2.132    core radius for aug-charge                                                  
                                                                                                    
   Atomic configuration                                                                             
   15 entries                                                                                       
     n  l   j            E        occ.                                                              
     1  0  0.50    -67341.2801   2.0000                                                             
     2  0  0.50    -11566.9369   2.0000                                                             
     2  1  1.50    -10134.1175   6.0000                                                             
     3  0  0.50     -2648.5614   2.0000                                                             
     3  1  1.50     -2222.6006   6.0000                                                             
     3  2  2.50     -1726.3114  10.0000                                                             
     4  0  0.50      -538.6957   2.0000                                                             
     4  1  1.50      -399.0125   6.0000                                                             
     4  2  2.50      -220.3955  10.0000                                                             
     4  3  3.50       -23.0371  14.0000                                                             
     5  0  0.50       -71.2900   2.0000                                                             
     5  1  1.50       -37.8224   6.0000                                                             
     5  2  2.50        -2.6455   4.0000                                                             
     6  0  0.50        -4.9623   1.0000                                                             
     5  3  2.50        -1.3606   0.0000                                                             
   Description                                                                                      
     l       E           TYP  RCUT    TYP  RCUT                                                     
     1    -37.8224449     23  2.500                                                                 
     1      1.3605826     23  2.500                                                                 
     2     -2.6454718     23  2.500                                                                 
     2     -0.6258570     23  2.500                                                                 
     0     -4.9622674     23  2.500                                                                 
     0      4.7531427     23  2.500                                                                 
  local pseudopotential read in
  partial core-charges read in
  partial kinetic energy density read in
  atomic valenz-charges read in
  non local Contribution for L=           1  read in
    real space projection operators read in
  non local Contribution for L=           1  read in
    real space projection operators read in
  non local Contribution for L=           2  read in
    real space projection operators read in
  non local Contribution for L=           2  read in
    real space projection operators read in
  non local Contribution for L=           0  read in
    real space projection operators read in
  non local Contribution for L=           0  read in
    real space projection operators read in
    PAW grid and wavefunctions read in
 
   number of l-projection  operators is LMAX  =           6
   number of lm-projection operators is LMMAX =          18
 
 POTCAR:    PAW_PBE W_sv 04Sep2015                
   SHA256 =  931c2d770f65867ef30f3db3421922900fc0890ebac5c3e12f63b6a2064023d7 W_sv/POTCAR           
   COPYR  = (c) Copyright 04Sep2015 Georg Kresse                                                    
   COPYR  = This file is part of the software VASP. Any use, copying, and all other rights are regul
   COPYR  = If you do not have a valid VASP license, you may not use, copy or distribute this file. 
   VRHFIN =W : 5p6s5d                                                                               
   LEXCH  = PE                                                                                      
   EATOM  =  1865.5791 eV,  137.1162 Ry                                                             
                                                                                                    
   TITEL  = PAW_PBE W_sv 04Sep2015                                                                  
   LULTRA =        F    use ultrasoft PP ?                                                          
   IUNSCR =        1    unscreen: 0-lin 1-nonlin 2-no                                               
   RPACOR =    2.330    partial core radius                                                         
   POMASS =  183.850; ZVAL   =   14.000    mass and valenz                                          
   RCORE  =    2.500    outmost cutoff radius                                                       
   RWIGS  =    2.750; RWIGS  =    1.455    wigner-seitz radius (au A)                               
   ENMAX  =  223.057; ENMIN  =  167.293 eV                                                          
   ICORE  =        3    local potential                                                             
   LCOR   =        T    correct aug charges                                                         
   LPAW   =        T    paw PP                                                                      
   EAUG   =  373.438                                                                                
   DEXC   =    0.000                                                                                
   RMAX   =    2.565    core radius for proj-oper                                                   
   RAUG   =    1.300    factor for augmentation sphere                                              
   RDEP   =    2.539    radius for radial grids                                                     
   RDEPT  =    2.126    core radius for aug-charge                                                  
                                                                                                    
   Atomic configuration                                                                             
   15 entries                                                                                       
     n  l   j            E        occ.                                                              
     1  0  0.50    -69465.5834   2.0000                                                             
     2  0  0.50    -11986.2640   2.0000                                                             
     2  1  1.50    -10479.8613   6.0000                                                             
     3  0  0.50     -2759.0756   2.0000                                                             
     3  1  1.50     -2313.1855   6.0000                                                             
     3  2  2.50     -1801.1183  10.0000                                                             
     4  0  0.50      -567.6789   2.0000                                                             
     4  1  1.50      -421.4692   6.0000                                                             
     4  2  2.50      -236.3471  10.0000                                                             
     4  3  3.50       -31.2665  14.0000                                                             
     5  0  0.50       -77.1084   2.0000                                                             
     6  0  0.50        -5.1438   1.0000                                                             
     5  1  1.50       -41.3856   6.0000                                                             
     5  2  2.50        -3.3185   5.0000                                                             
     5  3  2.50        -1.3606   0.0000                                                             
   Description                                                                                      
     l       E           TYP  RCUT    TYP  RCUT                                                     
     0    -77.1084470     23  2.100                                                                 
     0     -5.1437956     23  2.300                                                                 
     1    -41.3855615     23  2.500                                                                 
     1     -2.7211652     23  2.500                                                                 
     2     -3.3185025     23  2.500                                                                 
     2     -1.5965151     23  2.500                                                                 
     3     -1.3605826     23  2.500                                                                 
  local pseudopotential read in
  partial core-charges read in
  partial kinetic energy density read in
  kinetic energy density of atom read in
  atomic valenz-charges read in
  non local Contribution for L=           0  read in
    real space projection operators read in
  non local Contribution for L=           0  read in
    real space projection operators read in
  non local Contribution for L=           1  read in
    real space projection operators read in
  non local Contribution for L=           1  read in
    real space projection operators read in
  non local Contribution for L=           2  read in
    real space projection operators read in
  non local Contribution for L=           2  read in
    real space projection operators read in
    PAW grid and wavefunctions read in
 
   number of l-projection  operators is LMAX  =           6
   number of lm-projection operators is LMMAX =          18
 
 -----------------------------------------------------------------------------
|                                                                             |
|               ----> ADVICE to this user running VASP <----                  |
|                                                                             |
|     You have a (more or less) 'large supercell' and for larger cells it     |
|     might be more efficient to use real-space projection operators.         |
|     Therefore, try LREAL= Auto in the INCAR file.                           |
|     Mind: For very accurate calculation, you might also keep the            |
|     reciprocal projection scheme (i.e. LREAL=.FALSE.).                      |
|                                                                             |
 -----------------------------------------------------------------------------

  PAW_PBE Nb_sv 25May2007               :
 energy of atom  1       EATOM=-1555.1913
 kinetic energy error for atom=    0.2155 (will be added to EATOM!!)
  PAW_PBE Mo_sv 02Feb2006               :
 energy of atom  2       EATOM=-1862.2866
 kinetic energy error for atom=    0.1102 (will be added to EATOM!!)
  PAW_PBE Ta_pv 07Sep2000               :
 energy of atom  3       EATOM=-1047.1984
 kinetic energy error for atom=    0.0394 (will be added to EATOM!!)
  PAW_PBE W_sv 04Sep2015                :
 energy of atom  4       EATOM=-1865.5791
 kinetic energy error for atom=    0.0589 (will be added to EATOM!!)
 
 
 POSCAR: Nb-Mo-Ta-W alloy
  positions in direct lattice
  No initial velocities read in
 exchange correlation table for  LEXCH =        8
   RHO(1)=    0.500       N(1)  =     2000
   RHO(2)=  100.500       N(2)  =     4000
 


--------------------------------------------------------------------------------------------------------


 ion  position               nearest neighbor table
   1  0.250  0.750  0.000-   9 2.85  22 2.85  25 2.85  30 2.85  34 2.85  50 2.85  53 2.85  60 2.85

   2  0.625  0.625  0.750-  11 2.85  12 2.85  14 2.85  29 2.85  32 2.85  47 2.85  48 2.85  55 2.85
                            41 3.29
   3  0.625  0.125  0.750-  27 2.85  31 2.85  39 2.85  40 2.85  42 2.85  43 2.85  49 2.85  52 2.85

   4  0.250  0.000  0.000-   5 2.85  22 2.85  25 2.85  34 2.85  57 2.85  58 2.85  60 2.85  61 2.85
                            36 3.29
   5  0.125  0.125  0.750-   4 2.85  10 2.85  19 2.85  35 2.85  36 2.85  62 2.85  63 2.85  64 2.85

   6  0.250  0.500  0.000-   9 2.85  15 2.85  20 2.85  30 2.85  50 2.85  53 2.85  54 2.85  56 2.85
                            44 3.29
   7  0.625  0.125  0.250-  27 2.85  31 2.85  39 2.85  40 2.85  42 2.85  43 2.85  49 2.85  52 2.85
                            33 3.29  37 3.29
   8  0.625  0.875  0.750-  11 2.85  12 2.85  14 2.85  27 2.85  31 2.85  40 2.85  43 2.85  47 2.85
                            45 3.29  37 3.29  37 3.29
   9  0.375  0.625  0.250-   1 2.85   6 2.85  11 2.85  17 2.85  28 2.85  29 2.85  32 2.85  47 2.85

  10  0.250  0.250  0.000-   5 2.85  15 2.85  20 2.85  54 2.85  56 2.85  57 2.85  58 2.85  61 2.85
                            35 3.29  35 3.29
  11  0.500  0.750  0.000-   2 2.85   8 2.85   9 2.85  22 2.85  30 2.85  37 2.85  46 2.85  60 2.85

  12  0.750  0.750  0.000-   2 2.85   8 2.85  21 2.85  37 2.85  41 2.85  45 2.85  46 2.85  59 2.85
                            40 3.29
  13  0.875  0.125  0.250-  19 2.85  36 2.85  39 2.85  40 2.85  42 2.85  43 2.85  62 2.85  63 2.85

  14  0.750  0.750  0.500-   2 2.85   8 2.85  21 2.85  37 2.85  41 2.85  45 2.85  46 2.85  59 2.85
                            43 3.29
  15  0.375  0.375  0.250-   6 2.85  10 2.85  17 2.85  29 2.85  32 2.85  35 2.85  49 2.85  52 2.85
                            33 3.29
  16  0.000  0.500  0.500-  20 2.85  23 2.85  38 2.85  41 2.85  50 2.85  53 2.85  54 2.85  59 2.85
                            44 3.29  44 3.29
  17  0.250  0.500  0.500-   9 2.85  15 2.85  20 2.85  30 2.85  50 2.85  53 2.85  54 2.85  56 2.85
                            35 3.29
  18  0.875  0.125  0.750-  19 2.85  36 2.85  39 2.85  40 2.85  42 2.85  43 2.85  62 2.85  63 2.85
                            38 3.29  45 3.29
  19  0.000  0.250  0.000-   5 2.85  13 2.85  18 2.85  20 2.85  23 2.85  38 2.85  54 2.85  57 2.85
                            44 3.29  36 3.29  39 3.29
  20  0.125  0.375  0.250-   6 2.85  10 2.85  16 2.85  17 2.85  19 2.85  35 2.85  44 2.85  62 2.85
                            50 3.29  54 3.29  57 3.29  23 3.29  54 3.29
  21  0.875  0.875  0.250-  12 2.85  14 2.85  26 2.85  36 2.85  40 2.85  43 2.85  51 2.85  63 2.85
                            45 3.29  34 3.29  59 3.29  37 3.29  45 3.29
  22  0.375  0.875  0.250-   1 2.85   4 2.85  11 2.85  27 2.85  28 2.85  31 2.85  47 2.85  64 2.85
                            34 3.29  58 3.29  60 3.29  37 3.29  60 3.29
  23  0.875  0.375  0.250-  16 2.85  19 2.85  39 2.85  42 2.85  44 2.85  48 2.85  55 2.85  62 2.85
                            20 3.29  33 3.29  59 3.29  38 3.29  38 3.29
  24  0.625  0.375  0.750-  29 2.85  32 2.85  39 2.85  42 2.85  48 2.85  49 2.85  52 2.85  55 2.85
                            33 3.29  38 3.29  56 3.29  33 3.29
  25  0.125  0.875  0.750-   1 2.85   4 2.85  26 2.85  28 2.85  36 2.85  51 2.85  63 2.85  64 2.85
                            53 3.29  60 3.29  45 3.29  34 3.29  34 3.29
  26  0.000  0.750  0.000-  21 2.85  25 2.85  34 2.85  41 2.85  45 2.85  50 2.85  53 2.85  59 2.85
                            51 3.29  36 3.29  44 3.29  51 3.29
  27  0.500  0.000  0.000-   3 2.85   7 2.85   8 2.85  22 2.85  37 2.85  58 2.85  60 2.85  61 2.85
                            31 3.29  40 3.29  52 3.29  31 3.29
  28  0.250  0.750  0.500-   9 2.85  22 2.85  25 2.85  30 2.85  34 2.85  50 2.85  53 2.85  60 2.85
                            47 3.29  51 3.29  64 3.29
  29  0.500  0.500  0.500-   2 2.85   9 2.85  15 2.85  24 2.85  30 2.85  33 2.85  46 2.85  56 2.85
                            47 3.29  48 3.29  49 3.29  32 3.29  32 3.29
  30  0.375  0.625  0.750-   1 2.85   6 2.85  11 2.85  17 2.85  28 2.85  29 2.85  32 2.85  47 2.85
                            53 3.29  56 3.29  60 3.29
  31  0.500  0.000  0.500-   3 2.85   7 2.85   8 2.85  22 2.85  37 2.85  58 2.85  60 2.85  61 2.85
                            49 3.29  27 3.29  43 3.29  47 3.29  64 3.29  27 3.29
  32  0.500  0.500  0.000-   2 2.85   9 2.85  15 2.85  24 2.85  30 2.85  33 2.85  46 2.85  56 2.85
                            52 3.29  55 3.29  29 3.29  29 3.29
  33  0.625  0.375  0.250-  29 2.85  32 2.85  39 2.85  42 2.85  48 2.85  49 2.85  52 2.85  55 2.85
                            46 3.29   7 3.29  15 3.29  23 3.29  24 3.29  24 3.29
  34  0.125  0.875  0.250-   1 2.85   4 2.85  26 2.85  28 2.85  36 2.85  51 2.85  63 2.85  64 2.85
                            50 3.29  21 3.29  57 3.29  22 3.29  25 3.29  25 3.29
  35  0.250  0.250  0.500-   5 2.85  15 2.85  20 2.85  54 2.85  56 2.85  57 2.85  58 2.85  61 2.85
                            49 3.29  17 3.29  10 3.29  62 3.29  64 3.29  10 3.29
  36  0.000  0.000  0.000-   5 2.85  13 2.85  18 2.85  21 2.85  25 2.85  34 2.85  45 2.85  57 2.85
                             4 3.29  40 3.29  19 3.29  26 3.29  63 3.29  63 3.29
  37  0.625  0.875  0.250-  11 2.85  12 2.85  14 2.85  27 2.85  31 2.85  40 2.85  43 2.85  47 2.85
                             7 3.29  21 3.29  22 3.29  46 3.29   8 3.29   8 3.29
  38  0.875  0.375  0.750-  16 2.85  19 2.85  39 2.85  42 2.85  44 2.85  48 2.85  55 2.85  62 2.85
                            24 3.29  18 3.29  54 3.29  41 3.29  23 3.29  23 3.29
  39  0.750  0.250  0.000-   3 2.85   7 2.85  13 2.85  18 2.85  23 2.85  24 2.85  33 2.85  38 2.85
                            19 3.29  40 3.29  42 3.29  52 3.29  55 3.29  42 3.29
  40  0.750  0.000  0.000-   3 2.85   7 2.85   8 2.85  13 2.85  18 2.85  21 2.85  37 2.85  45 2.85
                            36 3.29  12 3.29  39 3.29  43 3.29  27 3.29  43 3.29
  41  0.875  0.625  0.750-  12 2.85  14 2.85  16 2.85  26 2.85  44 2.85  48 2.85  51 2.85  55 2.85
                            38 3.29   2 3.29  53 3.29  45 3.29  59 3.29  59 3.29
  42  0.750  0.250  0.500-   3 2.85   7 2.85  13 2.85  18 2.85  23 2.85  24 2.85  33 2.85  38 2.85
                            39 3.29  43 3.29  48 3.29  49 3.29  62 3.29  39 3.29
  43  0.750  0.000  0.500-   3 2.85   7 2.85   8 2.85  13 2.85  18 2.85  21 2.85  37 2.85  45 2.85
                            14 3.29  40 3.29  42 3.29  31 3.29  63 3.29  40 3.29
  44  0.000  0.500  0.000-  20 2.85  23 2.85  38 2.85  41 2.85  50 2.85  53 2.85  54 2.85  59 2.85
                            16 3.29  26 3.29  19 3.29  55 3.29   6 3.29  16 3.29
  45  0.875  0.875  0.750-  12 2.85  14 2.85  26 2.85  36 2.85  40 2.85  43 2.85  51 2.85  63 2.85
                            21 3.29  41 3.29  25 3.29   8 3.29  18 3.29  21 3.29
  46  0.625  0.625  0.250-  11 2.85  12 2.85  14 2.85  29 2.85  32 2.85  47 2.85  48 2.85  55 2.85
                            37 3.29  33 3.29  59 3.29
  47  0.500  0.750  0.500-   2 2.85   8 2.85   9 2.85  22 2.85  30 2.85  37 2.85  46 2.85  60 2.85
                            29 3.29  28 3.29  31 3.29
  48  0.750  0.500  0.500-   2 2.85  23 2.85  24 2.85  33 2.85  38 2.85  41 2.85  46 2.85  59 2.85
                            29 3.29  55 3.29  42 3.29  55 3.29
  49  0.500  0.250  0.500-   3 2.85   7 2.85  15 2.85  24 2.85  33 2.85  56 2.85  58 2.85  61 2.85
                            42 3.29  52 3.29  31 3.29  29 3.29  35 3.29  52 3.29
  50  0.125  0.625  0.250-   1 2.85   6 2.85  16 2.85  17 2.85  26 2.85  28 2.85  44 2.85  51 2.85
                            20 3.29  34 3.29  53 3.29  59 3.29  53 3.29
  51  0.000  0.750  0.500-  21 2.85  25 2.85  34 2.85  41 2.85  45 2.85  50 2.85  53 2.85  59 2.85
                            26 3.29  28 3.29  63 3.29  26 3.29
  52  0.500  0.250  0.000-   3 2.85   7 2.85  15 2.85  24 2.85  33 2.85  56 2.85  58 2.85  61 2.85
                            49 3.29  32 3.29  27 3.29  39 3.29  49 3.29
  53  0.125  0.625  0.750-   1 2.85   6 2.85  16 2.85  17 2.85  26 2.85  28 2.85  44 2.85  51 2.85
                            41 3.29  25 3.29  50 3.29  30 3.29  54 3.29  50 3.29
  54  0.125  0.375  0.750-   6 2.85  10 2.85  16 2.85  17 2.85  19 2.85  35 2.85  44 2.85  62 2.85
                            20 3.29  53 3.29  56 3.29  38 3.29  20 3.29
  55  0.750  0.500  0.000-   2 2.85  23 2.85  24 2.85  33 2.85  38 2.85  41 2.85  46 2.85  59 2.85
                            44 3.29  39 3.29  48 3.29  32 3.29  48 3.29
  56  0.375  0.375  0.750-   6 2.85  10 2.85  17 2.85  29 2.85  32 2.85  35 2.85  49 2.85  52 2.85
                            24 3.29  30 3.29  54 3.29  61 3.29
  57  0.125  0.125  0.250-   4 2.85  10 2.85  19 2.85  35 2.85  36 2.85  62 2.85  63 2.85  64 2.85
                            20 3.29  34 3.29  58 3.29
  58  0.375  0.125  0.250-   4 2.85  10 2.85  27 2.85  31 2.85  35 2.85  49 2.85  52 2.85  64 2.85
                            57 3.29  61 3.29  22 3.29  61 3.29
  59  0.875  0.625  0.250-  12 2.85  14 2.85  16 2.85  26 2.85  44 2.85  48 2.85  51 2.85  55 2.85
                            46 3.29  21 3.29  50 3.29  41 3.29  23 3.29  41 3.29
  60  0.375  0.875  0.750-   1 2.85   4 2.85  11 2.85  27 2.85  28 2.85  31 2.85  47 2.85  64 2.85
                            22 3.29  25 3.29  61 3.29  30 3.29  22 3.29
  61  0.375  0.125  0.750-   4 2.85  10 2.85  27 2.85  31 2.85  35 2.85  49 2.85  52 2.85  64 2.85
                            58 3.29  60 3.29  56 3.29  58 3.29
  62  0.000  0.250  0.500-   5 2.85  13 2.85  18 2.85  20 2.85  23 2.85  38 2.85  54 2.85  57 2.85
                            35 3.29  42 3.29  63 3.29
  63  0.000  0.000  0.500-   5 2.85  13 2.85  18 2.85  21 2.85  25 2.85  34 2.85  45 2.85  57 2.85
                            36 3.29  51 3.29  43 3.29  62 3.29  64 3.29  36 3.29
  64  0.250  0.000  0.500-   5 2.85  22 2.85  25 2.85  34 2.85  57 2.85  58 2.85  60 2.85  61 2.85
                            28 3.29  35 3.29  31 3.29  63 3.29
 
  LATTYP: Found a simple tetragonal cell.
 ALAT       =    13.1600000000
 C/A-ratio  =     0.5000000000
  
  Lattice vectors:
  
 A1 = (  13.1600000000,   0.0000000000,   0.0000000000)
 A2 = (   0.0000000000,  13.1600000000,   0.0000000000)
 A3 = (   0.0000000000,   0.0000000000,   6.5800000000)


Analysis of symmetry for initial positions (statically):
=====================================================================
 Subroutine PRICEL returns:
 Original cell was already a primitive cell.
 

 Routine SETGRP: Setting up the symmetry group for a 
 simple tetragonal supercell.


 Subroutine GETGRP returns: Found  1 space group operations
 (whereof  1 operations were pure point group operations)
 out of a pool of 16 trial point group operations.


The static configuration has the point symmetry C_1 .


Analysis of symmetry for dynamics (positions and initial velocities):
=====================================================================
 Subroutine PRICEL returns:
 Original cell was already a primitive cell.
 

 Routine SETGRP: Setting up the symmetry group for a 
 simple tetragonal supercell.


 Subroutine GETGRP returns: Found  1 space group operations
 (whereof  1 operations were pure point group operations)
 out of a pool of 16 trial point group operations.


The dynamic configuration has the point symmetry C_1 .


 Subroutine INISYM returns: Found  1 space group operations
 (whereof  1 operations are pure point group operations),
 and found     1 'primitive' translations


----------------------------------------------------------------------------------------

                                     Primitive cell                                     

  volume of cell :    1139.5612

  direct lattice vectors                    reciprocal lattice vectors
    13.160000000  0.000000000  0.000000000     0.075987842  0.000000000  0.000000000
     0.000000000 13.160000000  0.000000000     0.000000000  0.075987842  0.000000000
     0.000000000  0.000000000  6.580000000     0.000000000  0.000000000  0.151975684

  length of vectors
    13.160000000 13.160000000  6.580000000     0.075987842  0.075987842  0.151975684

  position of ions in fractional coordinates (direct lattice)
     0.250000000  0.750000000  0.000000000
     0.625000000  0.625000000  0.750000000
     0.625000000  0.125000000  0.750000000
     0.250000000  0.000000000  0.000000000
     0.125000000  0.125000000  0.750000000
     0.250000000  0.500000000  0.000000000
     0.625000000  0.125000000  0.250000000
     0.625000000  0.875000000  0.750000000
     0.375000000  0.625000000  0.250000000
     0.250000000  0.250000000  0.000000000
     0.500000000  0.750000000  0.000000000
     0.750000000  0.750000000  0.000000000
     0.875000000  0.125000000  0.250000000
     0.750000000  0.750000000  0.500000000
     0.375000000  0.375000000  0.250000000
     0.000000000  0.500000000  0.500000000
     0.250000000  0.500000000  0.500000000
     0.875000000  0.125000000  0.750000000
     0.000000000  0.250000000  0.000000000
     0.125000000  0.375000000  0.250000000
     0.875000000  0.875000000  0.250000000
     0.375000000  0.875000000  0.250000000
     0.875000000  0.375000000  0.250000000
     0.625000000  0.375000000  0.750000000
     0.125000000  0.875000000  0.750000000
     0.000000000  0.750000000  0.000000000
     0.500000000  0.000000000  0.000000000
     0.250000000  0.750000000  0.500000000
     0.500000000  0.500000000  0.500000000
     0.375000000  0.625000000  0.750000000
     0.500000000  0.000000000  0.500000000
     0.500000000  0.500000000  0.000000000
     0.625000000  0.375000000  0.250000000
     0.125000000  0.875000000  0.250000000
     0.250000000  0.250000000  0.500000000
     0.000000000  0.000000000  0.000000000
     0.625000000  0.875000000  0.250000000
     0.875000000  0.375000000  0.750000000
     0.750000000  0.250000000  0.000000000
     0.750000000  0.000000000  0.000000000
     0.875000000  0.625000000  0.750000000
     0.750000000  0.250000000  0.500000000
     0.750000000  0.000000000  0.500000000
     0.000000000  0.500000000  0.000000000
     0.875000000  0.875000000  0.750000000
     0.625000000  0.625000000  0.250000000
     0.500000000  0.750000000  0.500000000
     0.750000000  0.500000000  0.500000000
     0.500000000  0.250000000  0.500000000
     0.125000000  0.625000000  0.250000000
     0.000000000  0.750000000  0.500000000
     0.500000000  0.250000000  0.000000000
     0.125000000  0.625000000  0.750000000
     0.125000000  0.375000000  0.750000000
     0.750000000  0.500000000  0.000000000
     0.375000000  0.375000000  0.750000000
     0.125000000  0.125000000  0.250000000
     0.375000000  0.125000000  0.250000000
     0.875000000  0.625000000  0.250000000
     0.375000000  0.875000000  0.750000000
     0.375000000  0.125000000  0.750000000
     0.000000000  0.250000000  0.500000000
     0.000000000  0.000000000  0.500000000
     0.250000000  0.000000000  0.500000000

  ion indices of the primitive-cell ions
   primitive index   ion index
                 1           1
                 2           2
                 3           3
                 4           4
                 5           5
                 6           6
                 7           7
                 8           8
                 9           9
                10          10
                11          11
                12          12
                13          13
                14          14
                15          15
                16          16
                17          17
                18          18
                19          19
                20          20
                21          21
                22          22
                23          23
                24          24
                25          25
                26          26
                27          27
                28          28
                29          29
                30          30
                31          31
                32          32
                33          33
                34          34
                35          35
                36          36
                37          37
                38          38
                39          39
                40          40
                41          41
                42          42
                43          43
                44          44
                45          45
                46          46
                47          47
                48          48
                49          49
                50          50
                51          51
                52          52
                53          53
                54          54
                55          55
                56          56
                57          57
                58          58
                59          59
                60          60
                61          61
                62          62
                63          63
                64          64

----------------------------------------------------------------------------------------

 
 
 KPOINTS: K-Spacing Value to Generate K-Mesh: 0.03

Automatic generation of k-mesh.
 Grid dimensions read from file:
 generate k-points for:    3    3    5

 Generating k-lattice:

  Cartesian coordinates                     Fractional coordinates (reciprocal lattice)
     0.025329281  0.000000000  0.000000000     0.333333333  0.000000000  0.000000000
     0.000000000  0.025329281  0.000000000     0.000000000  0.333333333  0.000000000
     0.000000000  0.000000000  0.030395137     0.000000000  0.000000000  0.200000000

  Length of vectors
     0.025329281  0.025329281  0.030395137

  Shift w.r.t. Gamma in fractional coordinates (k-lattice)
     0.000000000  0.000000000  0.000000000

 
 Subroutine IBZKPT returns following result:
 ===========================================
 
 Found     23 irreducible k-points:
 
 Following reciprocal coordinates:
            Coordinates               Weight
  0.000000  0.000000  0.000000      1.000000
  0.333333  0.000000  0.000000      2.000000
  0.000000  0.333333  0.000000      2.000000
  0.333333  0.333333  0.000000      2.000000
 -0.333333  0.333333  0.000000      2.000000
  0.000000  0.000000  0.200000      2.000000
  0.333333  0.000000  0.200000      2.000000
  0.000000  0.333333  0.200000      2.000000
 -0.333333  0.000000  0.200000      2.000000
  0.000000 -0.333333  0.200000      2.000000
  0.333333  0.333333  0.200000      2.000000
 -0.333333  0.333333  0.200000      2.000000
 -0.333333 -0.333333  0.200000      2.000000
  0.333333 -0.333333  0.200000      2.000000
  0.000000  0.000000  0.400000      2.000000
  0.333333  0.000000  0.400000      2.000000
  0.000000  0.333333  0.400000      2.000000
 -0.333333  0.000000  0.400000      2.000000
  0.000000 -0.333333  0.400000      2.000000
  0.333333  0.333333  0.400000      2.000000
 -0.333333  0.333333  0.400000      2.000000
 -0.333333 -0.333333  0.400000      2.000000
  0.333333 -0.333333  0.400000      2.000000
 
 Following cartesian coordinates:
            Coordinates               Weight
  0.000000  0.000000  0.000000      1.000000
  0.025329  0.000000  0.000000      2.000000
  0.000000  0.025329  0.000000      2.000000
  0.025329  0.025329  0.000000      2.000000
 -0.025329  0.025329  0.000000      2.000000
  0.000000  0.000000  0.030395      2.000000
  0.025329  0.000000  0.030395      2.000000
  0.000000  0.025329  0.030395      2.000000
 -0.025329  0.000000  0.030395      2.000000
  0.000000 -0.025329  0.030395      2.000000
  0.025329  0.025329  0.030395      2.000000
 -0.025329  0.025329  0.030395      2.000000
 -0.025329 -0.025329  0.030395      2.000000
  0.025329 -0.025329  0.030395      2.000000
  0.000000  0.000000  0.060790      2.000000
  0.025329  0.000000  0.060790      2.000000
  0.000000  0.025329  0.060790      2.000000
 -0.025329  0.000000  0.060790      2.000000
  0.000000 -0.025329  0.060790      2.000000
  0.025329  0.025329  0.060790      2.000000
 -0.025329  0.025329  0.060790      2.000000
 -0.025329 -0.025329  0.060790      2.000000
  0.025329 -0.025329  0.060790      2.000000
 


--------------------------------------------------------------------------------------------------------




 Dimension of arrays:
   k-points           NKPTS =     23   k-points in BZ     NKDIM =     23   number of bands    NBANDS=    504
   number of dos      NEDOS =    301   number of ions     NIONS =     64
   non local maximal  LDIM  =      6   non local SUM 2l+1 LMDIM =     18
   total plane-waves  NPLWV = 176400
   max r-space proj   IRMAX =      1   max aug-charges    IRDMAX=   9034
   dimension x,y,z NGX =    70 NGY =   70 NGZ =   36
   dimension x,y,z NGXF=   140 NGYF=  140 NGZF=   72
   support grid    NGXF=   140 NGYF=  140 NGZF=   72
   ions per type =              19  13  13  19
   NGX,Y,Z   is equivalent  to a cutoff of   8.84,  8.84,  9.10 a.u.
   NGXF,Y,Z  is equivalent  to a cutoff of  17.69, 17.69, 18.19 a.u.

 SYSTEM =  unknown system                          
 POSCAR =  Nb-Mo-Ta-W alloy                        

 Startparameter for this run:
   NWRITE =      2    write-flag & timer
   PREC   = accura    normal or accurate (medium, high low for compatibility)
   ISTART =      0    job   : 0-new  1-cont  2-samecut
   ICHARG =      2    charge: 1-file 2-atom 10-const
   ISPIN  =      1    spin polarized calculation?
   LNONCOLLINEAR =      F non collinear calculations
   LSORBIT =      F    spin-orbit coupling
   INIWAV =      1    electr: 0-lowe 1-rand  2-diag
   LASPH  =      F    aspherical Exc in radial PAW
 Electronic Relaxation 1
   ENCUT  =  250.0 eV  18.37 Ry    4.29 a.u.  16.97 16.97  8.48*2*pi/ulx,y,z
   ENINI  =  250.0     initial cutoff
   ENAUG  =  455.7 eV  augmentation charge cutoff
   NELM   =     80;   NELMIN=  2; NELMDL= -5     # of ELM steps 
   EDIFF  = 0.1E-07   stopping-criterion for ELM
   LREAL  =      F    real-space projection
   NLSPLINE    = F    spline interpolate recip. space projectors
   LCOMPAT=      F    compatible to vasp.4.4
   GGA_COMPAT  = T    GGA compatible to vasp.4.4-vasp.4.6
   LMAXPAW     = -100 max onsite density
   LMAXMIX     =    2 max onsite mixed and CHGCAR
   VOSKOWN=      0    Vosko Wilk Nusair interpolation
   ROPT   =    0.00000   0.00000   0.00000   0.00000
 Ionic relaxation
   EDIFFG = -.1E-01   stopping-criterion for IOM
   NSW    =      0    number of steps for IOM
   NBLOCK =      1;   KBLOCK =      1    inner block; outer block 
   IBRION =     -1    ionic relax: 0-MD 1-quasi-New 2-CG
   NFREE  =      0    steps in history (QN), initial steepest desc. (CG)
   ISIF   =      2    stress and relaxation
   IWAVPR =     10    prediction:  0-non 1-charg 2-wave 3-comb
   ISYM   =      2    0-nonsym 1-usesym 2-fastsym
   LCORR  =      T    Harris-Foulkes like correction to forces

   POTIM  = 0.5000    time-step for ionic-motion
   TEIN   =    0.0    initial temperature
   TEBEG  =    0.0;   TEEND  =   0.0 temperature during run
   SMASS  =  -3.00    Nose mass-parameter (am)
   estimated Nose-frequenzy (Omega)   =  0.10E-29 period in steps = 0.13E+47 mass=  -0.396E-26a.u.
   SCALEE = 1.0000    scale energy and forces
   NPACO  =    256;   APACO  = 10.0  distance and # of slots for P.C.
   PSTRESS=    0.0 pullay stress

  Mass of Ions in am
   POMASS =  92.91 95.94180.95183.85
  Ionic Valenz
   ZVAL   =  13.00 14.00 11.00 14.00
  Atomic Wigner-Seitz radii
   RWIGS  =  -1.00 -1.00 -1.00 -1.00
  virtual crystal weights 
   VCA    =   1.00  1.00  1.00  1.00
   NELECT =     838.0000    total number of electrons
   NUPDOWN=      -1.0000    fix difference up-down

 DOS related values:
   EMIN   =  10.00;   EMAX   =-10.00  energy-range for DOS
   EFERMI =   0.00
   ISMEAR =     0;   SIGMA  =   0.02  broadening in eV -4-tet -1-fermi 0-gaus

 Electronic relaxation 2 (details)
   IALGO  =     38    algorithm
   LDIAG  =      T    sub-space diagonalisation (order eigenvalues)
   LSUBROT=      F    optimize rotation matrix (better conditioning)
   TURBO    =      0    0=normal 1=particle mesh
   IRESTART =      0    0=no restart 2=restart with 2 vectors
   NREBOOT  =      0    no. of reboots
   NMIN     =      0    reboot dimension
   EREF     =   0.00    reference energy to select bands
   IMIX   =      4    mixing-type and parameters
     AMIX     =   0.40;   BMIX     =  1.00
     AMIX_MAG =   1.60;   BMIX_MAG =  1.00
     AMIN     =   0.10
     WC   =   100.;   INIMIX=   1;  MIXPRE=   1;  MAXMIX= -45

 Intra band minimization:
   WEIMIN = 0.0000     energy-eigenvalue tresh-hold
   EBREAK =  0.50E-11  absolut break condition
   DEPER  =   0.30     relativ break condition  

   TIME   =   0.40     timestep for ELM

  volume/ion in A,a.u.               =      17.81       120.16
  Fermi-wavevector in a.u.,A,eV,Ry     =   1.477668  2.792388 29.708369  2.183504
  Thomas-Fermi vector in A             =   2.592044
 
 Write flags
   LWAVE        =      F    write WAVECAR
   LDOWNSAMPLE  =      F    k-point downsampling of WAVECAR
   LCHARG       =      F    write CHGCAR
   LVTOT        =      F    write LOCPOT, total local potential
   LVHAR        =      F    write LOCPOT, Hartree potential only
   LELF         =      F    write electronic localiz. function (ELF)
   LORBIT       =      0    0 simple, 1 ext, 2 COOP (PROOUT), +10 PAW based schemes


 Dipole corrections
   LMONO  =      F    monopole corrections only (constant potential shift)
   LDIPOL =      F    correct potential (dipole corrections)
   IDIPOL =      0    1-x, 2-y, 3-z, 4-all directions 
   EPSILON=  1.0000000 bulk dielectric constant

 Core level calculations are selected ICORELEVEL =  1
 Exchange correlation treatment:
   GGA     =    PE    GGA type
   LEXCH   =     8    internal setting for exchange type
   LIBXC   =     F    Libxc                    
   VOSKOWN =     0    Vosko Wilk Nusair interpolation
   LHFCALC =     F    Hartree Fock is set to
   LHFONE  =     F    Hartree Fock one center treatment
   AEXX    =    0.0000 exact exchange contribution

 Linear response parameters
   LEPSILON=     F    determine dielectric tensor
   LRPA    =     F    only Hartree local field effects (RPA)
   LNABLA  =     F    use nabla operator in PAW spheres
   LVEL    =     F    velocity operator in full k-point grid
   CSHIFT  =0.1000    complex shift for real part using Kramers Kronig
   OMEGAMAX=  -1.0    maximum frequency
   DEG_THRESHOLD= 0.2000000E-02 threshold for treating states as degnerate
   RTIME   =   -0.100 relaxation time in fs
  (WPLASMAI=    0.000 imaginary part of plasma frequency in eV, 0.658/RTIME)
   DFIELD  = 0.0000000 0.0000000 0.0000000 field for delta impulse in time
 
  Optional k-point grid parameters
   LKPOINTS_OPT  =     F    use optional k-point grid
   KPOINTS_OPT_MODE=     1    mode for optional k-point grid
 
 Orbital magnetization related:
   ORBITALMAG=     F  switch on orbital magnetization
   LCHIMAG   =     F  perturbation theory with respect to B field
   DQ        =  0.001000  dq finite difference perturbation B field
   LLRAUG    =     F  two centre corrections for induced B field



--------------------------------------------------------------------------------------------------------


 Static calculation
 charge density and potential will be updated during run
 non-spin polarized calculation
 Variant of blocked Davidson
 Davidson routine will perform the subspace rotation
 perform sub-space diagonalisation
    after iterative eigenvector-optimisation
 modified Broyden-mixing scheme, WC =      100.0
 initial mixing is a Kerker type mixing with AMIX =  0.4000 and BMIX =      1.0000
 Hartree-type preconditioning will be used
 using additional bands           85
 reciprocal scheme for non local part
 use partial core corrections
 calculate Harris-corrections to forces 
   (improved forces if not selfconsistent)
 use gradient corrections 
 use of overlap-Matrix (Vanderbilt PP)
 Gauss-broadening in eV      SIGMA  =   0.02


--------------------------------------------------------------------------------------------------------


  energy-cutoff  :      250.00
  volume of cell :     1139.56
      direct lattice vectors                 reciprocal lattice vectors
    13.160000000  0.000000000  0.000000000     0.075987842  0.000000000  0.000000000
     0.000000000 13.160000000  0.000000000     0.000000000  0.075987842  0.000000000
     0.000000000  0.000000000  6.580000000     0.000000000  0.000000000  0.151975684

  length of vectors
    13.160000000 13.160000000  6.580000000     0.075987842  0.075987842  0.151975684


 
 k-points in units of 2pi/SCALE and weight: K-Spacing Value to Generate K-Mesh: 0.03
   0.00000000  0.00000000  0.00000000       0.022
   0.02532928  0.00000000  0.00000000       0.044
   0.00000000  0.02532928  0.00000000       0.044
   0.02532928  0.02532928  0.00000000       0.044
  -0.02532928  0.02532928  0.00000000       0.044
   0.00000000  0.00000000  0.03039514       0.044
   0.02532928  0.00000000  0.03039514       0.044
   0.00000000  0.02532928  0.03039514       0.044
  -0.02532928  0.00000000  0.03039514       0.044
   0.00000000 -0.02532928  0.03039514       0.044
   0.02532928  0.02532928  0.03039514       0.044
  -0.02532928  0.02532928  0.03039514       0.044
  -0.02532928 -0.02532928  0.03039514       0.044
   0.02532928 -0.02532928  0.03039514       0.044
   0.00000000  0.00000000  0.06079027       0.044
   0.02532928  0.00000000  0.06079027       0.044
   0.00000000  0.02532928  0.06079027       0.044
  -0.02532928  0.00000000  0.06079027       0.044
   0.00000000 -0.02532928  0.06079027       0.044
   0.02532928  0.02532928  0.06079027       0.044
  -0.02532928  0.02532928  0.06079027       0.044
  -0.02532928 -0.02532928  0.06079027       0.044
   0.02532928 -0.02532928  0.06079027       0.044
 
 k-points in reciprocal lattice and weights: K-Spacing Value to Generate K-Mesh: 0.03
   0.00000000  0.00000000  0.00000000       0.022
   0.33333333  0.00000000  0.00000000       0.044
   0.00000000  0.33333333  0.00000000       0.044
   0.33333333  0.33333333  0.00000000       0.044
  -0.33333333  0.33333333  0.00000000       0.044
   0.00000000  0.00000000  0.20000000       0.044
   0.33333333  0.00000000  0.20000000       0.044
   0.00000000  0.33333333  0.20000000       0.044
  -0.33333333  0.00000000  0.20000000       0.044
   0.00000000 -0.33333333  0.20000000       0.044
   0.33333333  0.33333333  0.20000000       0.044
  -0.33333333  0.33333333  0.20000000       0.044
  -0.33333333 -0.33333333  0.20000000       0.044
   0.33333333 -0.33333333  0.20000000       0.044
   0.00000000  0.00000000  0.40000000       0.044
   0.33333333  0.00000000  0.40000000       0.044
   0.00000000  0.33333333  0.40000000       0.044
  -0.33333333  0.00000000  0.40000000       0.044
   0.00000000 -0.33333333  0.40000000       0.044
   0.33333333  0.33333333  0.40000000       0.044
  -0.33333333  0.33333333  0.40000000       0.044
  -0.33333333 -0.33333333  0.40000000       0.044
   0.33333333 -0.33333333  0.40000000       0.044
 
 position of ions in fractional coordinates (direct lattice) 
   0.25000000  0.75000000  0.00000000
   0.62500000  0.62500000  0.75000000
   0.62500000  0.12500000  0.75000000
   0.25000000  0.00000000  0.00000000
   0.12500000  0.12500000  0.75000000
   0.25000000  0.50000000  0.00000000
   0.62500000  0.12500000  0.25000000
   0.62500000  0.87500000  0.75000000
   0.37500000  0.62500000  0.25000000
   0.25000000  0.25000000  0.00000000
   0.50000000  0.75000000  0.00000000
   0.75000000  0.75000000  0.00000000
   0.87500000  0.12500000  0.25000000
   0.75000000  0.75000000  0.50000000
   0.37500000  0.37500000  0.25000000
   0.00000000  0.50000000  0.50000000
   0.25000000  0.50000000  0.50000000
   0.87500000  0.12500000  0.75000000
   0.00000000  0.25000000  0.00000000
   0.12500000  0.37500000  0.25000000
   0.87500000  0.87500000  0.25000000
   0.37500000  0.87500000  0.25000000
   0.87500000  0.37500000  0.25000000
   0.62500000  0.37500000  0.75000000
   0.12500000  0.87500000  0.75000000
   0.00000000  0.75000000  0.00000000
   0.50000000  0.00000000  0.00000000
   0.25000000  0.75000000  0.50000000
   0.50000000  0.50000000  0.50000000
   0.37500000  0.62500000  0.75000000
   0.50000000  0.00000000  0.50000000
   0.50000000  0.50000000  0.00000000
   0.62500000  0.37500000  0.25000000
   0.12500000  0.87500000  0.25000000
   0.25000000  0.25000000  0.50000000
   0.00000000  0.00000000  0.00000000
   0.62500000  0.87500000  0.25000000
   0.87500000  0.37500000  0.75000000
   0.75000000  0.25000000  0.00000000
   0.75000000  0.00000000  0.00000000
   0.87500000  0.62500000  0.75000000
   0.75000000  0.25000000  0.50000000
   0.75000000  0.00000000  0.50000000
   0.00000000  0.50000000  0.00000000
   0.87500000  0.87500000  0.75000000
   0.62500000  0.62500000  0.25000000
   0.50000000  0.75000000  0.50000000
   0.75000000  0.50000000  0.50000000
   0.50000000  0.25000000  0.50000000
   0.12500000  0.62500000  0.25000000
   0.00000000  0.75000000  0.50000000
   0.50000000  0.25000000  0.00000000
   0.12500000  0.62500000  0.75000000
   0.12500000  0.37500000  0.75000000
   0.75000000  0.50000000  0.00000000
   0.37500000  0.37500000  0.75000000
   0.12500000  0.12500000  0.25000000
   0.37500000  0.12500000  0.25000000
   0.87500000  0.62500000  0.25000000
   0.37500000  0.87500000  0.75000000
   0.37500000  0.12500000  0.75000000
   0.00000000  0.25000000  0.50000000
   0.00000000  0.00000000  0.50000000
   0.25000000  0.00000000  0.50000000
 
 position of ions in cartesian coordinates  (Angst):
   3.29000000  9.87000000  0.00000000
   8.22500000  8.22500000  4.93500000
   8.22500000  1.64500000  4.93500000
   3.29000000  0.00000000  0.00000000
   1.64500000  1.64500000  4.93500000
   3.29000000  6.58000000  0.00000000
   8.22500000  1.64500000  1.64500000
   8.22500000 11.51500000  4.93500000
   4.93500000  8.22500000  1.64500000
   3.29000000  3.29000000  0.00000000
   6.58000000  9.87000000  0.00000000
   9.87000000  9.87000000  0.00000000
  11.51500000  1.64500000  1.64500000
   9.87000000  9.87000000  3.29000000
   4.93500000  4.93500000  1.64500000
   0.00000000  6.58000000  3.29000000
   3.29000000  6.58000000  3.29000000
  11.51500000  1.64500000  4.93500000
   0.00000000  3.29000000  0.00000000
   1.64500000  4.93500000  1.64500000
  11.51500000 11.51500000  1.64500000
   4.93500000 11.51500000  1.64500000
  11.51500000  4.93500000  1.64500000
   8.22500000  4.93500000  4.93500000
   1.64500000 11.51500000  4.93500000
   0.00000000  9.87000000  0.00000000
   6.58000000  0.00000000  0.00000000
   3.29000000  9.87000000  3.29000000
   6.58000000  6.58000000  3.29000000
   4.93500000  8.22500000  4.93500000
   6.58000000  0.00000000  3.29000000
   6.58000000  6.58000000  0.00000000
   8.22500000  4.93500000  1.64500000
   1.64500000 11.51500000  1.64500000
   3.29000000  3.29000000  3.29000000
   0.00000000  0.00000000  0.00000000
   8.22500000 11.51500000  1.64500000
  11.51500000  4.93500000  4.93500000
   9.87000000  3.29000000  0.00000000
   9.87000000  0.00000000  0.00000000
  11.51500000  8.22500000  4.93500000
   9.87000000  3.29000000  3.29000000
   9.87000000  0.00000000  3.29000000
   0.00000000  6.58000000  0.00000000
  11.51500000 11.51500000  4.93500000
   8.22500000  8.22500000  1.64500000
   6.58000000  9.87000000  3.29000000
   9.87000000  6.58000000  3.29000000
   6.58000000  3.29000000  3.29000000
   1.64500000  8.22500000  1.64500000
   0.00000000  9.87000000  3.29000000
   6.58000000  3.29000000  0.00000000
   1.64500000  8.22500000  4.93500000
   1.64500000  4.93500000  4.93500000
   9.87000000  6.58000000  0.00000000
   4.93500000  4.93500000  4.93500000
   1.64500000  1.64500000  1.64500000
   4.93500000  1.64500000  1.64500000
  11.51500000  8.22500000  1.64500000
   4.93500000 11.51500000  4.93500000
   4.93500000  1.64500000  4.93500000
   0.00000000  3.29000000  3.29000000
   0.00000000  0.00000000  3.29000000
   3.29000000  0.00000000  3.29000000
 


--------------------------------------------------------------------------------------------------------


 k-point   1 :   0.0000 0.0000 0.0000  plane waves:   10181
 k-point   2 :   0.3333 0.0000 0.0000  plane waves:   10238
 k-point   3 :   0.0000 0.3333 0.0000  plane waves:   10238
 k-point   4 :   0.3333 0.3333 0.0000  plane waves:   10248
 k-point   5 :  -0.3333 0.3333 0.0000  plane waves:   10248
 k-point   6 :   0.0000 0.0000 0.2000  plane waves:   10193
 k-point   7 :   0.3333 0.0000 0.2000  plane waves:   10246
 k-point   8 :   0.0000 0.3333 0.2000  plane waves:   10246
 k-point   9 :  -0.3333 0.0000 0.2000  plane waves:   10246
 k-point  10 :   0.0000-0.3333 0.2000  plane waves:   10246
 k-point  11 :   0.3333 0.3333 0.2000  plane waves:   10238
 k-point  12 :  -0.3333 0.3333 0.2000  plane waves:   10238
 k-point  13 :  -0.3333-0.3333 0.2000  plane waves:   10238
 k-point  14 :   0.3333-0.3333 0.2000  plane waves:   10238
 k-point  15 :   0.0000 0.0000 0.4000  plane waves:   10201
 k-point  16 :   0.3333 0.0000 0.4000  plane waves:   10223
 k-point  17 :   0.0000 0.3333 0.4000  plane waves:   10223
 k-point  18 :  -0.3333 0.0000 0.4000  plane waves:   10223
 k-point  19 :   0.0000-0.3333 0.4000  plane waves:   10223
 k-point  20 :   0.3333 0.3333 0.4000  plane waves:   10193
 k-point  21 :  -0.3333 0.3333 0.4000  plane waves:   10193
 k-point  22 :  -0.3333-0.3333 0.4000  plane waves:   10193
 k-point  23 :   0.3333-0.3333 0.4000  plane waves:   10193

 maximum and minimum number of plane-waves per node :       880      830

 maximum number of plane-waves:     10248
 maximum index in each direction: 
   IXMAX=   17   IYMAX=   17   IZMAX=    8
   IXMIN=  -17   IYMIN=  -17   IZMIN=   -8


 parallel 3D FFT for wavefunctions:
    minimum data exchange during FFTs selected (reduces bandwidth)
 parallel 3D FFT for charge:
    minimum data exchange during FFTs selected (reduces bandwidth)


 total amount of memory used by VASP MPI-rank0    91346. kBytes
=======================================================================

   base      :      30000. kBytes
   nonl-proj :      12216. kBytes
   fftplans  :       1504. kBytes
   grid      :       2835. kBytes
   one-center:         93. kBytes
   wavefun   :      44698. kBytes
 
     INWAV:  cpu time      0.0000: real time      0.0002
 Broyden mixing: mesh for mixing (old mesh)
   NGX = 33   NGY = 33   NGZ = 17
  (NGX  =140   NGY  =140   NGZ  = 72)
  gives a total of  18513 points

 initial charge density was supplied:
 charge density of overlapping atoms calculated
 number of electron     838.0000000 magnetization 
 keeping initial charge density in first step


--------------------------------------------------------------------------------------------------------


 Maximum index for augmentation-charges          505 (set IRDMAX)


--------------------------------------------------------------------------------------------------------


 First call to EWALD:  gamma=   0.170
 Maximum number of real-space cells 2x 2x 4
 Maximum number of reciprocal cells 3x 3x 2

    FEWALD:  cpu time      0.2523: real time      0.2531


--------------------------------------- Iteration      1(   1)  ---------------------------------------


    POTLOK:  cpu time      0.3091: real time      0.3170
    SETDIJ:  cpu time      0.2719: real time      0.2731
     EDDAV:  cpu time    162.1914: real time    174.1727
       DOS:  cpu time      0.0061: real time      0.0061
    --------------------------------------------
      LOOP:  cpu time    162.7785: real time    174.7688

 eigenvalue-minimisations  : 23576
 total energy-change (2. order) : 0.8203329E+04  (-0.3255990E+05)
 number of electron     838.0000000 magnetization 
 augmentation part      838.0000000 magnetization 

 Free energy of the ion-electron system (eV)
  ---------------------------------------------------
  alpha Z        PSCENC =      7243.23074982
  Ewald energy   TEWEN  =    -87387.04246991
  -Hartree energ DENC   =    -16666.94491442
  -exchange      EXHF   =         0.00000000
  -V(xc)+E(xc)   XCENC  =      3338.20487795
  PAW double counting   =     81391.92808962   -80147.07941506
  entropy T*S    EENTRO =        -0.00437803
  eigenvalues    EBANDS =     -2379.74592148
  atomic energy  EATOM  =    102810.78277482
  Solvation  Ediel_sol  =         0.00000000
  ---------------------------------------------------
  free energy    TOTEN  =      8203.32939331 eV

  energy without entropy =     8203.33377134  energy(sigma->0) =     8203.33158233


--------------------------------------------------------------------------------------------------------




--------------------------------------- Iteration      1(   2)  ---------------------------------------


     EDDAV:  cpu time    143.2332: real time    153.0980
       DOS:  cpu time      0.4444: real time      0.4461
    --------------------------------------------
      LOOP:  cpu time    143.6776: real time    153.5441

 eigenvalue-minimisations  : 23224
 total energy-change (2. order) :-0.8152593E+04  (-0.7916962E+04)
 number of electron     838.0000000 magnetization 
 augmentation part      838.0000000 magnetization 

 Free energy of the ion-electron system (eV)
  ---------------------------------------------------
  alpha Z        PSCENC =      7243.23074982
  Ewald energy   TEWEN  =    -87387.04246991
  -Hartree energ DENC   =    -16666.94491442
  -exchange      EXHF   =         0.00000000
  -V(xc)+E(xc)   XCENC  =      3338.20487795
  PAW double counting   =     81391.92808962   -80147.07941506
  entropy T*S    EENTRO =        -0.00799184
  eigenvalues    EBANDS =    -10532.33552279
  atomic energy  EATOM  =    102810.78277482
  Solvation  Ediel_sol  =         0.00000000
  ---------------------------------------------------
  free energy    TOTEN  =        50.73617820 eV

  energy without entropy =       50.74417004  energy(sigma->0) =       50.74017412


--------------------------------------------------------------------------------------------------------




--------------------------------------- Iteration      1(   3)  ---------------------------------------


     EDDAV:  cpu time    131.1628: real time    139.1570
       DOS:  cpu time      0.4607: real time      0.4621
    --------------------------------------------
      LOOP:  cpu time    131.6235: real time    139.6192

 eigenvalue-minimisations  : 34416
 total energy-change (2. order) :-0.7647085E+03  (-0.7185662E+03)
 number of electron     838.0000000 magnetization 
 augmentation part      838.0000000 magnetization 

 Free energy of the ion-electron system (eV)
  ---------------------------------------------------
  alpha Z        PSCENC =      7243.23074982
  Ewald energy   TEWEN  =    -87387.04246991
  -Hartree energ DENC   =    -16666.94491442
  -exchange      EXHF   =         0.00000000
  -V(xc)+E(xc)   XCENC  =      3338.20487795
  PAW double counting   =     81391.92808962   -80147.07941506
  entropy T*S    EENTRO =        -0.00872832
  eigenvalues    EBANDS =    -11297.04329883
  atomic energy  EATOM  =    102810.78277482
  Solvation  Ediel_sol  =         0.00000000
  ---------------------------------------------------
  free energy    TOTEN  =      -713.97233432 eV

  energy without entropy =     -713.96360600  energy(sigma->0) =     -713.96797016


--------------------------------------------------------------------------------------------------------




--------------------------------------- Iteration      1(   4)  ---------------------------------------


     EDDAV:  cpu time     73.0641: real time     73.3453
       DOS:  cpu time      0.4594: real time      0.4609
    --------------------------------------------
      LOOP:  cpu time     73.5236: real time     73.8062

 eigenvalue-minimisations  : 34568
 total energy-change (2. order) :-0.5918155E+02  (-0.5701826E+02)
 number of electron     838.0000000 magnetization 
 augmentation part      838.0000000 magnetization 

 Free energy of the ion-electron system (eV)
  ---------------------------------------------------
  alpha Z        PSCENC =      7243.23074982
  Ewald energy   TEWEN  =    -87387.04246991
  -Hartree energ DENC   =    -16666.94491442
  -exchange      EXHF   =         0.00000000
  -V(xc)+E(xc)   XCENC  =      3338.20487795
  PAW double counting   =     81391.92808962   -80147.07941506
  entropy T*S    EENTRO =        -0.00962535
  eigenvalues    EBANDS =    -11356.22394720
  atomic energy  EATOM  =    102810.78277482
  Solvation  Ediel_sol  =         0.00000000
  ---------------------------------------------------
  free energy    TOTEN  =      -773.15387973 eV

  energy without entropy =     -773.14425438  energy(sigma->0) =     -773.14906705


--------------------------------------------------------------------------------------------------------




--------------------------------------- Iteration      1(   5)  ---------------------------------------


     EDDAV:  cpu time     90.1927: real time     90.5336
       DOS:  cpu time      0.2619: real time      0.2627
    CHARGE:  cpu time      0.9999: real time      1.0030
    MIXING:  cpu time      0.0011: real time      0.0011
    --------------------------------------------
      LOOP:  cpu time     91.4555: real time     91.8004

 eigenvalue-minimisations  : 38640
 total energy-change (2. order) :-0.3749769E+01  (-0.3712724E+01)
 number of electron     837.9999705 magnetization 
 augmentation part      172.1899235 magnetization 

 Broyden mixing:
  rms(total) = 0.10616E+02    rms(broyden)= 0.10614E+02
  rms(prec ) = 0.10958E+02
  weight for this iteration     100.00

 Free energy of the ion-electron system (eV)
  ---------------------------------------------------
  alpha Z        PSCENC =      7243.23074982
  Ewald energy   TEWEN  =    -87387.04246991
  -Hartree energ DENC   =    -16666.94491442
  -exchange      EXHF   =         0.00000000
  -V(xc)+E(xc)   XCENC  =      3338.20487795
  PAW double counting   =     81391.92808962   -80147.07941506
  entropy T*S    EENTRO =        -0.01019771
  eigenvalues    EBANDS =    -11359.97314388
  atomic energy  EATOM  =    102810.78277482
  Solvation  Ediel_sol  =         0.00000000
  ---------------------------------------------------
  free energy    TOTEN  =      -776.90364876 eV

  energy without entropy =     -776.89345106  energy(sigma->0) =     -776.89854991


--------------------------------------------------------------------------------------------------------




--------------------------------------- Iteration      1(   6)  ---------------------------------------


    POTLOK:  cpu time      0.0679: real time      0.0683
    SETDIJ:  cpu time      0.2241: real time      0.2249
     EDDAV:  cpu time     42.6554: real time     42.8110
       DOS:  cpu time      0.3860: real time      0.3875
    CHARGE:  cpu time      1.4730: real time      1.4782
    MIXING:  cpu time      0.1860: real time      0.1866
    --------------------------------------------
      LOOP:  cpu time     44.9924: real time     45.1565

 eigenvalue-minimisations  : 29032
 total energy-change (2. order) : 0.2536873E+02  (-0.9496815E+01)
 number of electron     837.9999705 magnetization 
 augmentation part      178.8443514 magnetization 

 Broyden mixing:
  rms(total) = 0.40362E+01    rms(broyden)= 0.40352E+01
  rms(prec ) = 0.54572E+01
  weight for this iteration     100.00

 eigenvalues of (default mixing * dielectric matrix)
  average eigenvalue GAMMA=   1.4413
  1.4413

 Free energy of the ion-electron system (eV)
  ---------------------------------------------------
  alpha Z        PSCENC =      7243.23074982
  Ewald energy   TEWEN  =    -87387.04246991
  -Hartree energ DENC   =    -15748.38437740
  -exchange      EXHF   =         0.00000000
  -V(xc)+E(xc)   XCENC  =      3293.68971605
  PAW double counting   =     96417.95796167   -95283.05599868
  entropy T*S    EENTRO =        -0.01139026
  eigenvalues    EBANDS =    -12098.70188428
  atomic energy  EATOM  =    102810.78277482
  Solvation  Ediel_sol  =         0.00000000
  ---------------------------------------------------
  free energy    TOTEN  =      -751.53491817 eV

  energy without entropy =     -751.52352790  energy(sigma->0) =     -751.52922303


--------------------------------------------------------------------------------------------------------




--------------------------------------- Iteration      1(   7)  ---------------------------------------


    POTLOK:  cpu time      0.0228: real time      0.0232
    SETDIJ:  cpu time      0.0049: real time      0.0050
     EDDAV:  cpu time     37.2344: real time     37.3799
       DOS:  cpu time      0.0060: real time      0.0061
    CHARGE:  cpu time      0.4280: real time      0.4293
    MIXING:  cpu time      0.0006: real time      0.0006
    --------------------------------------------
      LOOP:  cpu time     37.6967: real time     37.8440

 eigenvalue-minimisations  : 32576
 total energy-change (2. order) :-0.4115166E+02  (-0.1524972E+02)
 number of electron     837.9999675 magnetization 
 augmentation part      178.6686006 magnetization 

 Broyden mixing:
  rms(total) = 0.36773E+01    rms(broyden)= 0.36740E+01
  rms(prec ) = 0.10493E+02
  weight for this iteration     100.00

 eigenvalues of (default mixing * dielectric matrix)
  average eigenvalue GAMMA=   0.9655
  1.5688  0.3623

 Free energy of the ion-electron system (eV)
  ---------------------------------------------------
  alpha Z        PSCENC =      7243.23074982
  Ewald energy   TEWEN  =    -87387.04246991
  -Hartree energ DENC   =    -15563.74080980
  -exchange      EXHF   =         0.00000000
  -V(xc)+E(xc)   XCENC  =      3280.08892038
  PAW double counting   =    104344.28549177  -103241.11225521
  entropy T*S    EENTRO =        -0.01369904
  eigenvalues    EBANDS =    -12279.16527796
  atomic energy  EATOM  =    102810.78277482
  Solvation  Ediel_sol  =         0.00000000
  ---------------------------------------------------
  free energy    TOTEN  =      -792.68657513 eV

  energy without entropy =     -792.67287608  energy(sigma->0) =     -792.67972561


--------------------------------------------------------------------------------------------------------




--------------------------------------- Iteration      1(   8)  ---------------------------------------


    POTLOK:  cpu time      0.0140: real time      0.0141
    SETDIJ:  cpu time      0.0040: real time      0.0040
     EDDAV:  cpu time     40.7276: real time     40.8766
       DOS:  cpu time      0.1338: real time      0.1342
    CHARGE:  cpu time      0.4589: real time      0.4602
    MIXING:  cpu time      0.0005: real time      0.0005
    --------------------------------------------
      LOOP:  cpu time     41.3388: real time     41.4897

 eigenvalue-minimisations  : 34288
 total energy-change (2. order) : 0.5273453E+02  (-0.1274110E+02)
 number of electron     837.9999695 magnetization 
 augmentation part      180.2394124 magnetization 

 Broyden mixing:
  rms(total) = 0.15074E+01    rms(broyden)= 0.15025E+01
  rms(prec ) = 0.28338E+01
  weight for this iteration     100.00

 eigenvalues of (default mixing * dielectric matrix)
  average eigenvalue GAMMA=   0.8348
  1.6466  0.5623  0.2954

 Free energy of the ion-electron system (eV)
  ---------------------------------------------------
  alpha Z        PSCENC =      7243.23074982
  Ewald energy   TEWEN  =    -87387.04246991
  -Hartree energ DENC   =    -15351.98855793
  -exchange      EXHF   =         0.00000000
  -V(xc)+E(xc)   XCENC  =      3271.82344761
  PAW double counting   =    108560.35946096  -107480.81633404
  entropy T*S    EENTRO =        -0.01154174
  eigenvalues    EBANDS =    -12406.28957243
  atomic energy  EATOM  =    102810.78277482
  Solvation  Ediel_sol  =         0.00000000
  ---------------------------------------------------
  free energy    TOTEN  =      -739.95204284 eV

  energy without entropy =     -739.94050111  energy(sigma->0) =     -739.94627197


--------------------------------------------------------------------------------------------------------




--------------------------------------- Iteration      1(   9)  ---------------------------------------


    POTLOK:  cpu time      0.0169: real time      0.0171
    SETDIJ:  cpu time      0.0041: real time      0.0041
     EDDAV:  cpu time     54.9053: real time     55.1069
       DOS:  cpu time      0.5037: real time      0.5053
    CHARGE:  cpu time      0.5593: real time      0.5611
    MIXING:  cpu time      0.0536: real time      0.0537
    --------------------------------------------
      LOOP:  cpu time     56.0429: real time     56.2482

 eigenvalue-minimisations  : 31352
[...]
 -0.006  -0.000   0.005  -0.008  -0.001  -0.010   0.003   0.003   3.266  -0.083   0.040   0.016   0.003  -1.374   0.044  -0.014
 -0.001   0.002   0.004   0.001  -0.008  -0.000   0.000   0.004  -0.083   3.272  -0.006   0.081   0.009   0.044  -1.374   0.003
 -0.002  -0.027   0.000  -0.004  -0.002  -0.000   0.009  -0.000   0.040  -0.006   2.547  -0.004   0.020  -0.014   0.003  -1.144
 -0.002  -0.021  -0.008   0.003   0.005   0.003  -0.009  -0.002   0.016   0.081  -0.004   3.282  -0.012  -0.009  -0.052   0.004
 -0.001  -0.017  -0.001   0.000   0.003   0.002  -0.001   0.002   0.003   0.009   0.020  -0.012   2.612  -0.001  -0.004  -0.010
  0.004  -0.012  -0.003   0.005   0.001   0.006  -0.002  -0.002  -1.374   0.044  -0.014  -0.009  -0.001   0.589  -0.023   0.005
  0.001  -0.003  -0.003  -0.000   0.005   0.002  -0.001  -0.002   0.044  -1.374   0.003  -0.052  -0.004  -0.023   0.588  -0.001
  0.002   0.012  -0.000   0.003   0.002  -0.000  -0.004   0.000  -0.014   0.003  -1.144   0.004  -0.010   0.005  -0.001   0.521
  0.002   0.015   0.005  -0.002  -0.003  -0.002   0.005   0.002  -0.009  -0.052   0.003  -1.376   0.006   0.005   0.029  -0.002
  0.001   0.008   0.001  -0.000  -0.003  -0.001   0.000  -0.000  -0.002  -0.004  -0.010   0.006  -1.172   0.001   0.002   0.004


------------------------ aborting loop because EDIFF is reached ----------------------------------------


    CHARGE:  cpu time      0.5354: real time      0.5371
    FORLOC:  cpu time      0.0264: real time      0.0265
    FORNL :  cpu time     20.5063: real time     20.5755
    STRESS:  cpu time     15.6318: real time     15.6892
    FORCOR:  cpu time      0.2830: real time      0.2840
    FORHAR:  cpu time      0.1198: real time      0.1203
    MIXING:  cpu time      0.5308: real time      0.5326
    OFIELD:  cpu time      0.0000: real time      0.0000

  FORCE on cell =-STRESS in cart. coord.  units (eV):
  Direction    XX          YY          ZZ          XY          YZ          ZX
  --------------------------------------------------------------------------------------
  Alpha Z  7243.23075  7243.23075  7243.23075
  Ewald  -29483.86725-28987.81024-28915.81353    13.95563   -10.53319    24.48839
  Hartree  4757.40136  5244.41778  5315.80146    14.11338    -8.62908    21.46942
  E(xc)   -3854.85486 -3854.94961 -3854.91197    -0.02755    -0.02273    -0.00436
  Local    7116.30867  6134.41654  5988.12867   -27.34782    18.39454   -45.50872
  n-local -1227.34739 -1229.91594 -1230.35391    -0.62866     1.04251     0.77102
  augment  2329.70425  2330.14687  2330.26078    -0.21729     0.26823    -0.18271
  Kinetic 13016.64219 13018.49421 13021.61103     0.12170    -1.16773    -0.94516
  Fock        0.00000     0.00000     0.00000     0.00000     0.00000     0.00000
  -------------------------------------------------------------------------------------
  Total    -102.78228  -101.96965  -102.04672    -0.03061    -0.64745     0.08787
  in kB    -144.50775  -143.36523  -143.47359    -0.04304    -0.91029     0.12355
  external pressure =     -143.78 kB  Pullay stress =        0.00 kB


 VOLUME and BASIS-vectors are now :
 -----------------------------------------------------------------------------
  energy-cutoff  :      250.00
  volume of cell :     1139.56
      direct lattice vectors                 reciprocal lattice vectors
    13.160000000  0.000000000  0.000000000     0.075987842  0.000000000  0.000000000
     0.000000000 13.160000000  0.000000000     0.000000000  0.075987842  0.000000000
     0.000000000  0.000000000  6.580000000     0.000000000  0.000000000  0.151975684

  length of vectors
    13.160000000 13.160000000  6.580000000     0.075987842  0.075987842  0.151975684


 FORCES acting on ions
    electron-ion (+dipol)            ewald-force                    non-local-force                 convergence-correction
 -----------------------------------------------------------------------------------------------
   0.614E+02 -.313E+02 -.353E+02   -.613E+02 0.313E+02 0.349E+02   -.181E+00 -.545E-01 0.114E+00   0.833E-05 -.150E-04 -.583E-07
   -.127E+03 -.492E+02 -.110E+02   0.127E+03 0.486E+02 0.108E+02   -.349E+00 -.147E+00 0.939E-01   -.387E-04 0.583E-04 0.281E-05
   -.240E+03 0.215E+02 -.197E+01   0.239E+03 -.216E+02 0.196E+01   -.226E+00 0.212E+00 -.115E-01   0.528E-04 -.484E-04 -.148E-04
   0.115E+03 -.750E+01 -.187E+02   -.114E+03 0.751E+01 0.186E+02   0.124E+00 -.734E-01 -.536E-01   -.639E-04 -.720E-04 0.225E-05
   0.113E+03 -.493E+01 -.299E+02   -.113E+03 0.479E+01 0.291E+02   0.337E+00 0.328E-01 0.291E+00   -.782E-04 -.430E-04 0.882E-05
   0.579E+02 0.294E+02 -.180E+02   -.587E+02 -.294E+02 0.176E+02   0.437E+00 0.259E-01 0.170E+00   0.443E-04 0.732E-04 -.203E-05
   -.231E+03 0.134E+02 0.199E+01   0.230E+03 -.133E+02 -.196E+01   -.265E+00 -.166E+00 0.127E-02   0.472E-04 -.564E-04 0.153E-04
   -.202E+03 -.778E+02 -.117E+02   0.202E+03 0.780E+02 0.115E+02   -.245E+00 -.630E-01 0.440E-01   0.662E-05 0.479E-04 -.581E-05
   -.636E+00 0.901E+01 0.197E+02   0.117E+01 -.919E+01 -.193E+02   -.919E-01 0.268E+00 -.140E+00   -.280E-04 0.414E-04 -.131E-04
   0.647E+02 0.938E+01 -.141E+01   -.648E+02 -.937E+01 0.135E+01   0.151E+00 0.102E+00 0.448E-01   -.218E-04 0.979E-05 -.755E-06
   -.122E+03 -.535E+02 -.187E+02   0.122E+03 0.535E+02 0.186E+02   -.221E-01 -.599E-01 -.579E-01   -.177E-04 0.148E-04 0.512E-05
   -.517E+02 -.115E+03 0.452E+02   0.516E+02 0.115E+03 -.446E+02   0.248E+00 -.141E+00 -.108E+00   -.837E-05 0.896E-04 -.535E-05
   0.127E+03 0.335E+02 0.381E+02   -.127E+03 -.334E+02 -.376E+02   0.200E+00 0.793E-02 -.139E+00   -.306E-04 -.469E-04 -.361E-06
   -.529E+02 -.114E+03 -.452E+02   0.531E+02 0.114E+03 0.446E+02   -.479E-01 -.137E+00 0.822E-01   -.176E-04 0.923E-04 0.564E-05
   0.987E+01 0.370E+02 -.157E+02   -.844E+01 -.369E+02 0.157E+02   -.402E+00 -.997E-01 -.294E-01   0.665E-06 0.515E-04 -.808E-06
   0.112E+03 0.361E+02 -.546E+02   -.111E+03 -.359E+02 0.541E+02   -.302E+00 -.139E+00 -.442E-01   -.466E-05 0.742E-07 0.286E-04
   0.430E+02 0.513E+02 0.180E+02   -.437E+02 -.516E+02 -.176E+02   0.462E+00 0.275E+00 -.149E+00   0.491E-04 0.663E-04 0.229E-05
   0.118E+03 0.312E+02 -.381E+02   -.117E+03 -.312E+02 0.376E+02   -.510E-01 -.202E-01 0.101E+00   -.296E-04 -.380E-04 0.342E-06
   0.147E+03 0.327E+02 0.369E+02   -.147E+03 -.322E+02 -.364E+02   -.126E+00 -.122E+00 -.518E-01   -.600E-04 -.618E-04 -.296E-04
   0.765E+02 0.247E+02 0.126E+02   -.764E+02 -.249E+02 -.124E+02   -.326E+00 0.902E-02 -.683E-01   -.195E-05 0.452E-05 -.813E-05
   0.943E+02 -.133E+03 0.328E+02   -.938E+02 0.133E+03 -.325E+02   -.331E-01 -.470E+00 -.331E-01   0.359E-05 0.599E-04 -.127E-04
   -.273E+02 -.107E+02 0.311E+02   0.274E+02 0.106E+02 -.306E+02   0.920E-01 0.374E+00 -.132E-01   0.351E-04 -.610E-04 -.619E-05
   0.666E+02 0.928E+02 0.308E+02   -.672E+02 -.930E+02 -.306E+02   0.308E+00 0.428E+00 0.258E-01   -.262E-04 -.697E-04 0.132E-05
   -.190E+03 0.113E+03 -.133E+01   0.190E+03 -.113E+03 0.134E+01   -.523E+00 0.202E+00 -.731E-02   0.380E-04 -.631E-04 -.964E-05
   0.151E+03 -.700E+02 -.513E+02   -.151E+03 0.703E+02 0.508E+02   0.422E+00 -.543E+00 -.118E-01   -.486E-04 -.163E-04 0.256E-04
   0.121E+03 -.686E+02 0.307E+02   -.121E+03 0.682E+02 -.305E+02   0.799E-01 0.139E+00 0.160E-02   0.155E-04 0.101E-03 -.129E-04
   -.202E+03 0.405E+01 -.209E+02   0.202E+03 -.430E+01 0.208E+02   0.599E-01 0.375E+00 0.347E-01   0.107E-03 -.448E-04 0.443E-05
   0.674E+02 -.248E+02 0.378E+02   -.676E+02 0.245E+02 -.376E+02   0.110E+00 0.327E+00 0.674E-01   0.151E-04 -.161E-04 0.190E-05
   -.812E+02 0.506E+02 0.382E+02   0.809E+02 -.507E+02 -.379E+02   0.335E+00 0.121E+00 0.992E-01   -.337E-04 0.387E-04 -.681E-05
   -.594E+01 0.460E+01 -.210E+02   0.663E+01 -.444E+01 0.207E+02   -.363E+00 -.378E-01 -.543E-01   -.334E-04 0.482E-04 0.113E-04
   -.209E+03 -.728E+01 0.209E+02   0.208E+03 0.730E+01 -.208E+02   -.320E+00 -.845E-01 -.315E-01   0.117E-03 -.385E-04 -.451E-05
   -.824E+02 0.393E+02 -.381E+02   0.821E+02 -.391E+02 0.379E+02   0.339E+00 -.313E+00 -.750E-01   -.395E-04 0.448E-04 0.725E-05
   -.121E+03 0.973E+02 0.108E+01   0.120E+03 -.970E+02 -.105E+01   0.207E+00 0.383E+00 -.470E-01   0.152E-04 -.470E-04 0.670E-05
   0.954E+02 -.513E+02 0.407E+02   -.957E+02 0.510E+02 -.399E+02   0.112E+00 -.836E-01 -.137E+00   -.305E-04 -.143E-04 -.188E-04
   0.436E+02 0.960E+00 0.122E+01   -.437E+02 -.697E+00 -.114E+01   -.678E-02 -.285E+00 -.523E-01   -.133E-04 0.106E-04 0.150E-05
   0.120E+03 -.728E+01 0.927E+01   -.119E+03 0.734E+01 -.904E+01   -.196E+00 -.250E+00 0.256E-01   -.398E-04 -.283E-04 -.988E-05
   -.149E+03 -.737E+02 0.100E+02   0.148E+03 0.741E+02 -.973E+01   -.884E-01 -.350E+00 -.659E-01   0.752E-05 0.443E-04 0.429E-05
   0.339E+02 0.547E+02 -.243E+02   -.342E+02 -.544E+02 0.241E+02   0.362E-01 -.298E-01 0.205E-01   -.130E-04 -.572E-04 0.540E-06
   -.541E+02 0.555E+02 0.159E+01   0.544E+02 -.553E+02 -.157E+01   -.316E+00 0.195E+00 0.133E-01   0.339E-05 -.574E-04 -.182E-04
   -.571E+02 -.203E+02 0.870E+01   0.576E+02 0.200E+02 -.844E+01   -.882E-01 0.975E-01 0.360E-01   0.755E-05 0.568E-05 -.832E-05
   0.105E+02 0.514E+01 -.179E+02   -.108E+02 -.510E+01 0.178E+02   0.330E+00 0.800E-01 0.465E-01   0.184E-04 0.395E-04 0.116E-04
   -.433E+02 0.545E+02 -.161E+01   0.433E+02 -.543E+02 0.157E+01   0.540E-01 0.218E+00 0.220E-01   -.550E-06 -.575E-04 0.186E-04
   -.385E+02 -.205E+02 -.873E+01   0.387E+02 0.203E+02 0.844E+01   0.125E+00 0.185E+00 -.842E-02   -.327E-05 0.983E-05 0.791E-05
   0.959E+02 0.334E+02 0.462E+02   -.952E+02 -.337E+02 -.458E+02   -.278E+00 0.194E+00 0.114E+00   0.303E-05 0.765E-05 -.261E-04
   0.803E+02 -.862E+02 -.259E+02   -.798E+02 0.859E+02 0.256E+02   0.209E+00 -.957E-01 0.119E+00   0.327E-05 0.520E-04 0.115E-04
   -.963E+02 -.438E+02 0.118E+02   0.960E+02 0.434E+02 -.116E+02   0.307E+00 -.191E+00 0.659E-01   -.523E-04 0.660E-04 -.168E-05
   -.140E+03 -.562E+02 0.201E+02   0.140E+03 0.562E+02 -.201E+02   -.562E+00 -.402E-01 -.193E-01   -.140E-04 0.184E-04 -.441E-05
   -.857E+02 0.792E+02 -.395E+02   0.860E+02 -.790E+02 0.393E+02   -.396E+00 -.130E+00 -.936E-01   -.108E-04 -.412E-04 0.226E-04
   -.144E+03 0.129E+02 0.390E+02   0.144E+03 -.129E+02 -.387E+02   -.948E-01 -.140E-01 0.109E+00   0.902E-04 -.219E-04 -.621E-05
   0.889E+02 0.235E+02 0.320E+02   -.888E+02 -.227E+02 -.318E+02   -.406E+00 0.242E-01 0.212E-01   0.648E-04 0.631E-04 -.221E-04
   0.130E+03 -.596E+02 -.308E+02   -.130E+03 0.590E+02 0.305E+02   0.473E+00 0.400E+00 0.582E-02   0.122E-04 0.927E-04 0.151E-04
   -.159E+03 0.142E+02 -.390E+02   0.158E+03 -.142E+02 0.387E+02   0.180E-02 0.484E-01 -.972E-01   0.872E-04 -.167E-04 0.639E-05
   0.129E+03 0.458E+02 -.320E+02   -.129E+03 -.453E+02 0.318E+02   0.320E+00 0.958E-01 0.986E-02   0.561E-04 0.555E-04 0.231E-04
   0.113E+03 0.297E+02 -.126E+02   -.114E+03 -.302E+02 0.124E+02   0.353E+00 0.368E+00 -.493E-01   -.159E-04 0.877E-05 0.889E-05
   -.102E+03 0.788E+02 0.395E+02   0.102E+03 -.788E+02 -.393E+02   -.284E+00 -.848E-01 0.629E-01   -.486E-05 -.342E-04 -.221E-04
   0.336E+02 0.474E+02 0.168E+02   -.329E+02 -.474E+02 -.169E+02   0.132E+00 -.989E-01 0.330E-01   -.980E-05 0.565E-04 0.427E-06
   0.112E+03 0.168E+02 0.318E+02   -.112E+03 -.174E+02 -.314E+02   0.393E+00 0.154E+00 0.214E+00   -.789E-04 -.535E-04 -.112E-04
   -.130E+00 -.389E+02 -.681E+01   0.964E+00 0.390E+02 0.702E+01   -.233E+00 -.411E+00 0.202E-01   0.539E-04 -.325E-04 0.615E-05
   0.839E+01 0.410E+01 0.228E+02   -.837E+01 -.409E+01 -.226E+02   -.679E-01 0.131E-01 -.667E-01   0.190E-04 0.609E-04 -.138E-04
   -.346E+02 -.181E+02 -.311E+02   0.351E+02 0.183E+02 0.306E+02   -.304E+00 0.146E+00 -.770E-01   0.246E-04 -.686E-04 0.814E-05
   0.992E+01 -.337E+02 0.685E+01   -.939E+01 0.336E+02 -.702E+01   0.182E+00 -.126E+00 -.691E-01   0.538E-04 -.375E-04 -.679E-05
   0.144E+03 0.261E+02 -.395E+02   -.143E+03 -.255E+02 0.393E+02   0.793E-01 -.308E+00 -.136E+00   -.737E-04 -.655E-04 0.325E-04
   0.158E+03 -.538E+01 -.117E+02   -.158E+03 0.521E+01 0.115E+02   0.368E+00 -.776E-01 -.589E-01   -.578E-04 -.272E-04 0.133E-04
   0.995E+02 -.316E+02 0.201E+02   -.992E+02 0.319E+02 -.201E+02   0.873E-01 -.299E+00 -.153E-01   -.580E-04 -.655E-04 -.139E-05
 -----------------------------------------------------------------------------------------------
   -.276E+00 0.437E-01 -.374E-01   -.966E-12 -.711E-14 0.142E-13   0.277E+00 -.436E-01 0.374E-01   0.238E-05 0.166E-04 0.180E-04
 
 
 POSITION                                       TOTAL-FORCE (eV/Angst)
 -----------------------------------------------------------------------------------
      3.29000      9.87000      0.00000        -0.011232     -0.097381     -0.332893
      8.22500      8.22500      4.93500        -0.304060     -0.717947     -0.137078
      8.22500      1.64500      4.93500        -1.114231      0.094340     -0.023378
      3.29000      0.00000      0.00000         0.326634     -0.063527     -0.087323
      1.64500      1.64500      4.93500        -0.000512     -0.102737     -0.444874
      3.29000      6.58000      0.00000        -0.396177      0.047927     -0.291137
      8.22500      1.64500      1.64500        -1.005794     -0.023506      0.035446
      8.22500     11.51500      4.93500        -0.688746      0.087506     -0.179796
      4.93500      8.22500      1.64500         0.441467      0.082480      0.342429
      3.29000      3.29000      0.00000         0.054035      0.118653     -0.016878
      6.58000      9.87000      0.00000        -0.584300     -0.117583     -0.083209
      9.87000      9.87000      0.00000         0.161957     -0.195166      0.554806
     11.51500      1.64500      1.64500         0.589230      0.069551      0.356501
      9.87000      9.87000      3.29000         0.174622     -0.198109     -0.592829
      4.93500      4.93500      1.64500         1.032356     -0.055597     -0.027756
      0.00000      6.58000      3.29000         0.404514     -0.023345     -0.500407
      3.29000      6.58000      3.29000        -0.226987     -0.017965      0.311347
     11.51500      1.64500      4.93500         0.475844     -0.024872     -0.393198
      0.00000      3.29000      0.00000         0.342276      0.400921      0.387670
      1.64500      4.93500      1.64500        -0.205640     -0.154968      0.165068
     11.51500     11.51500      1.64500         0.471504     -0.201502      0.201674
      4.93500     11.51500      1.64500         0.146342      0.325591      0.439559
     11.51500      4.93500      1.64500        -0.323397      0.236720      0.158618
      8.22500      4.93500      4.93500        -0.325378      0.352876      0.007133
      1.64500     11.51500      4.93500        -0.076044     -0.254386     -0.504868
      0.00000      9.87000      0.00000         0.261985     -0.299776      0.179840
      6.58000      0.00000      0.00000        -0.701876      0.126924     -0.033432
      3.29000      9.87000      3.29000        -0.148495      0.069549      0.268893
      6.58000      6.58000      3.29000         0.030557      0.065902      0.310956
      4.93500      8.22500      4.93500         0.326930      0.120949     -0.303562
      6.58000      0.00000      3.29000        -0.848993     -0.059557      0.033310
      6.58000      6.58000      0.00000         0.070270     -0.118290     -0.282772
      8.22500      4.93500      1.64500        -0.568618      0.673518     -0.014705
      1.64500     11.51500      1.64500        -0.166759     -0.355588      0.696952
      3.29000      3.29000      3.29000        -0.137153     -0.022549      0.025548
      0.00000      0.00000      0.00000         0.128843     -0.197415      0.252937
      8.22500     11.51500      1.64500        -0.801541      0.068383      0.233252
     11.51500      4.93500      4.93500        -0.181797      0.272699     -0.244850
      9.87000      3.29000      0.00000        -0.106462      0.432571      0.035787
      9.87000      0.00000      0.00000         0.380470     -0.134655      0.295693
     11.51500      8.22500      4.93500         0.042682      0.122770     -0.034671
      9.87000      3.29000      3.29000         0.078019      0.434358     -0.014600
      9.87000      0.00000      3.29000         0.270038     -0.086535     -0.299758
      0.00000      6.58000      0.00000         0.447914     -0.076975      0.549930
     11.51500     11.51500      4.93500         0.739196     -0.375070     -0.222180
      8.22500      8.22500      1.64500        -0.013409     -0.621815      0.207335
      6.58000      9.87000      3.29000        -0.633001     -0.027470      0.005081
      9.87000      6.58000      3.29000        -0.061704     -0.026300     -0.382128
      6.58000      3.29000      3.29000        -0.600054     -0.004744      0.381587
      1.64500      8.22500      1.64500        -0.356439      0.822706      0.248148
      0.00000      9.87000      3.29000         0.383260     -0.214212     -0.232815
      6.58000      3.29000      0.00000        -0.447637      0.040566     -0.369731
      1.64500      8.22500      4.93500        -0.176234      0.598157     -0.240328
      1.64500      4.93500      4.93500        -0.193443     -0.126536     -0.225361
      9.87000      6.58000      0.00000         0.103946     -0.034846      0.344820
      4.93500      4.93500      4.93500         0.918902     -0.138424     -0.042588
      1.64500      1.64500      1.64500        -0.161667     -0.428676      0.657605
      4.93500      1.64500      1.64500         0.600932     -0.261877      0.223655
     11.51500      8.22500      1.64500        -0.042334      0.022330      0.036002
      4.93500     11.51500      4.93500         0.202695      0.322693     -0.601244
      4.93500      1.64500      4.93500         0.710167     -0.297859     -0.235715
      0.00000      3.29000      3.29000         0.530257      0.345725     -0.375232
      0.00000      0.00000      3.29000         0.348117     -0.247096     -0.219673
      3.29000      0.00000      3.29000         0.414150      0.048488      0.043388
 -----------------------------------------------------------------------------------
    total drift:                                0.000354      0.000071     -0.000012


--------------------------------------------------------------------------------------------------------



  FREE ENERGIE OF THE ION-ELECTRON SYSTEM (eV)
  ---------------------------------------------------
  free  energy   TOTEN  =      -737.64012076 eV

  energy  without entropy=     -737.62869365  energy(sigma->0) =     -737.63440721
 


--------------------------------------------------------------------------------------------------------


    POTLOK:  cpu time      0.6906: real time      0.6929


--------------------------------------------------------------------------------------------------------


     LOOP+:  cpu time   1863.2444: real time   1898.4672
    4ORBIT:  cpu time      0.0000: real time      0.0000

 total amount of memory used by VASP MPI-rank0    91346. kBytes
=======================================================================

   base      :      30000. kBytes
   nonl-proj :      12216. kBytes
   fftplans  :       1504. kBytes
   grid      :       2835. kBytes
   one-center:         93. kBytes
   wavefun   :      44698. kBytes
 
  
  
 General timing and accounting informations for this job:
 ========================================================
  
                  Total CPU time used (sec):     2037.636
                            User time (sec):     2006.168
                          System time (sec):       31.468
                         Elapsed time (sec):     2088.863
  
                   Maximum memory used (kb):      153560.
                   Average memory used (kb):          N/A
  
                          Minor page faults:        27524
                          Major page faults:            0
                 Voluntary context switches:          246
