 vasp.6.3.1 04May22 (build Jul 26 2022 04:02:40) complex                        
  
 executed on             LinuxIFC date 2023.12.01  02:57:59
 running on   48 total cores
 distrk:  each k-point on   48 cores,    1 groups
 distr:  one band on NCORE=  12 cores,    4 groups


--------------------------------------------------------------------------------------------------------


 INCAR:
   ISTART = 0
   NWRITE = 2
   PREC = Accurate
   ENCUT = 250
   GGA = PE
   NSW = 0
   ISIF = 2
   ISYM = 2
   NBLOCK = 1
   KBLOCK = 1
   IBRION = -1
   NELM = 80
   EDIFF = 1E-08
   EDIFFG = -0.01
   ALGO = Normal
   LDIAG = .TRUE.
   LREAL = .FALSE.
   ISMEAR = 0
   SIGMA = 0.02
   ICHARG = 2
   LPLANE = .TRUE.
   NPAR = 4
   LSCALU = .FALSE.
   NSIM = 4
   LWAVE = .FALSE.
   LCHARG = .FALSE.
   ICORELEVEL = 1

 POTCAR:    PAW_PBE Nb_sv 25May2007               
 POTCAR:    PAW_PBE Mo_sv 02Feb2006               
 POTCAR:    PAW_PBE Ta_pv 07Sep2000               
 POTCAR:    PAW_PBE W_sv 04Sep2015                
 POTCAR:    PAW_PBE Nb_sv 25May2007               
   SHA256 =  0e8fc07c9fcd1164cf2ade22d0399fd28f85e91cd773dfa6cf24839a48c95e24 Nb_sv/POTCAR          
   COPYR  = (c) Copyright 25May2007 Georg Kresse                                                    
   COPYR  = This file is part of the software VASP. Any use, copying, and all other rights are regul
   COPYR  = If you do not have a valid VASP license, you may not use, copy or distribute this file. 
   VRHFIN =Nb: 4p5s4d                                                                               
   LEXCH  = PE                                                                                      
   EATOM  =  1555.1913 eV,  114.3033 Ry                                                             
                                                                                                    
   TITEL  = PAW_PBE Nb_sv 25May2007                                                                 
   LULTRA =        F    use ultrasoft PP ?                                                          
   IUNSCR =        1    unscreen: 0-lin 1-nonlin 2-no                                               
   RPACOR =    1.800    partial core radius                                                         
   POMASS =   92.910; ZVAL   =   13.000    mass and valenz                                          
   RCORE  =    2.400    outmost cutoff radius                                                       
   RWIGS  =    2.400; RWIGS  =    1.270    wigner-seitz radius (au A)                               
   ENMAX  =  293.235; ENMIN  =  219.927 eV                                                          
   ICORE  =        3    local potential                                                             
   LCOR   =        T    correct aug charges                                                         
   LPAW   =        T    paw PP                                                                      
   EAUG   =  455.659                                                                                
   DEXC   =    0.000                                                                                
   RMAX   =    2.456    core radius for proj-oper                                                   
   RAUG   =    1.300    factor for augmentation sphere                                              
   RDEP   =    2.451    radius for radial grids                                                     
   RDEPT  =    1.956    core radius for aug-charge                                                  
                                                                                                    
   Atomic configuration                                                                             
   11 entries                                                                                       
     n  l   j            E        occ.                                                              
     1  0  0.50    -18805.2457   2.0000                                                             
     2  0  0.50     -2630.2869   2.0000                                                             
     2  1  1.50     -2348.4046   6.0000                                                             
     3  0  0.50      -438.8757   2.0000                                                             
     3  1  1.50      -346.7588   6.0000                                                             
     3  2  2.50      -196.2560  10.0000                                                             
     4  0  0.50       -58.3859   2.0000                                                             
     5  0  0.50        -3.9816   1.0000                                                             
     4  1  1.50       -34.5141   6.0000                                                             
     4  2  2.50        -3.0408   4.0000                                                             
     4  3  2.50        -1.3606   0.0000                                                             
   Description                                                                                      
     l       E           TYP  RCUT    TYP  RCUT                                                     
     0    -58.3859094     23  2.200                                                                 
     0     -3.9816262     23  2.200                                                                 
     1    -34.5140738     23  2.200                                                                 
     1     13.6058260     23  2.200                                                                 
     2     -3.0408010     23  2.200                                                                 
     2     -0.1283038     23  2.200                                                                 
     3     -1.3605826     23  2.400                                                                 
  local pseudopotential read in
  partial core-charges read in
  partial kinetic energy density read in
  atomic valenz-charges read in
  non local Contribution for L=           0  read in
    real space projection operators read in
  non local Contribution for L=           0  read in
    real space projection operators read in
  non local Contribution for L=           1  read in
    real space projection operators read in
  non local Contribution for L=           1  read in
    real space projection operators read in
  non local Contribution for L=           2  read in
    real space projection operators read in
  non local Contribution for L=           2  read in
    real space projection operators read in
    PAW grid and wavefunctions read in
 
   number of l-projection  operators is LMAX  =           6
   number of lm-projection operators is LMMAX =          18
 
 POTCAR:    PAW_PBE Mo_sv 02Feb2006               
   SHA256 =  2731df97e41766cc617548c5a8267718fdef1f509ac6bafa01e745abea2bdfaa Mo_sv/POTCAR          
   COPYR  = (c) Copyright 02Feb2006 Georg Kresse                                                    
   COPYR  = This file is part of the software VASP. Any use, copying, and all other rights are regul
   COPYR  = If you do not have a valid VASP license, you may not use, copy or distribute this file. 
   VRHFIN =Mo: 4p5s4d                                                                               
   LEXCH  = PE                                                                                      
   EATOM  =  1862.2866 eV,  136.8742 Ry                                                             
                                                                                                    
   TITEL  = PAW_PBE Mo_sv 02Feb2006                                                                 
   LULTRA =        F    use ultrasoft PP ?                                                          
   IUNSCR =        1    unscreen: 0-lin 1-nonlin 2-no                                               
   RPACOR =    2.200    partial core radius                                                         
   POMASS =   95.940; ZVAL   =   14.000    mass and valenz                                          
   RCORE  =    2.500    outmost cutoff radius                                                       
   RWIGS  =    2.750; RWIGS  =    1.455    wigner-seitz radius (au A)                               
   ENMAX  =  242.676; ENMIN  =  182.007 eV                                                          
   ICORE  =        3    local potential                                                             
   LCOR   =        T    correct aug charges                                                         
   LPAW   =        T    paw PP                                                                      
   EAUG   =  446.014                                                                                
   DEXC   =    0.000                                                                                
   RMAX   =    2.563    core radius for proj-oper                                                   
   RAUG   =    1.300    factor for augmentation sphere                                              
   RDEP   =    2.641    radius for radial grids                                                     
   RDEPT  =    2.031    core radius for aug-charge                                                  
                                                                                                    
   Atomic configuration                                                                             
   11 entries                                                                                       
     n  l   j            E        occ.                                                              
     1  0  0.50    -19819.0341   2.0000                                                             
     2  0  0.50     -2799.0127   2.0000                                                             
     2  1  1.50     -2502.0276   6.0000                                                             
     3  0  0.50      -476.4449   2.0000                                                             
     3  1  1.50      -379.1496   6.0000                                                             
     3  2  2.50      -220.9367  10.0000                                                             
     4  0  0.50       -64.3378   2.0000                                                             
     5  0  0.50        -4.0862   1.0000                                                             
     4  1  1.50       -38.4773   6.0000                                                             
     4  2  2.50        -3.7535   5.0000                                                             
     4  3  2.50        -1.3606   0.0000                                                             
   Description                                                                                      
     l       E           TYP  RCUT    TYP  RCUT                                                     
     0    -64.3377829     23  2.100                                                                 
     0     -4.0861640     23  2.400                                                                 
     1    -38.4772993     23  2.100                                                                 
     1     13.6058260     23  2.100                                                                 
     2     -3.7534941     23  2.400                                                                 
     2     -5.1140767     23  2.400                                                                 
     3     -4.0817478     23  2.500                                                                 
  local pseudopotential read in
  partial core-charges read in
  partial kinetic energy density read in
  atomic valenz-charges read in
  non local Contribution for L=           0  read in
    real space projection operators read in
  non local Contribution for L=           0  read in
    real space projection operators read in
  non local Contribution for L=           1  read in
    real space projection operators read in
  non local Contribution for L=           1  read in
    real space projection operators read in
  non local Contribution for L=           2  read in
    real space projection operators read in
  non local Contribution for L=           2  read in
    real space projection operators read in
    PAW grid and wavefunctions read in
 
   number of l-projection  operators is LMAX  =           6
   number of lm-projection operators is LMMAX =          18
 
 POTCAR:    PAW_PBE Ta_pv 07Sep2000               
   SHA256 =  00d0a14a36c127416459414afb8617d9754996fffa60a2465888e660b20a452f Ta_pv/POTCAR          
   COPYR  = (c) Copyright 07Sep2000 Georg Kresse                                                    
   COPYR  = This file is part of the software VASP. Any use, copying, and all other rights are regul
   COPYR  = If you do not have a valid VASP license, you may not use, copy or distribute this file. 
   VRHFIN =Ta:  5p6s5d                                                                              
   LEXCH  = PE                                                                                      
   EATOM  =  1047.1984 eV,   76.9669 Ry                                                             
                                                                                                    
   TITEL  = PAW_PBE Ta_pv 07Sep2000                                                                 
   LULTRA =        F    use ultrasoft PP ?                                                          
   IUNSCR =        1    unscreen: 0-lin 1-nonlin 2-no                                               
   RPACOR =    2.330    partial core radius                                                         
   POMASS =  180.948; ZVAL   =   11.000    mass and valenz                                          
   RCORE  =    2.500    outmost cutoff radius                                                       
   RWIGS  =    2.840; RWIGS  =    1.503    wigner-seitz radius (au A)                               
   ENMAX  =  223.667; ENMIN  =  167.750 eV                                                          
   RCLOC  =    2.205    cutoff for local pot                                                        
   LCOR   =        T    correct aug charges                                                         
   LPAW   =        T    paw PP                                                                      
   EAUG   =  377.421                                                                                
   DEXC   =    0.000                                                                                
   RMAX   =    2.551    core radius for proj-oper                                                   
   RAUG   =    1.300    factor for augmentation sphere                                              
   RDEP   =    2.526    radius for radial grids                                                     
   RDEPT  =    2.132    core radius for aug-charge                                                  
                                                                                                    
   Atomic configuration                                                                             
   15 entries                                                                                       
     n  l   j            E        occ.                                                              
     1  0  0.50    -67341.2801   2.0000                                                             
     2  0  0.50    -11566.9369   2.0000                                                             
     2  1  1.50    -10134.1175   6.0000                                                             
     3  0  0.50     -2648.5614   2.0000                                                             
     3  1  1.50     -2222.6006   6.0000                                                             
     3  2  2.50     -1726.3114  10.0000                                                             
     4  0  0.50      -538.6957   2.0000                                                             
     4  1  1.50      -399.0125   6.0000                                                             
     4  2  2.50      -220.3955  10.0000                                                             
     4  3  3.50       -23.0371  14.0000                                                             
     5  0  0.50       -71.2900   2.0000                                                             
     5  1  1.50       -37.8224   6.0000                                                             
     5  2  2.50        -2.6455   4.0000                                                             
     6  0  0.50        -4.9623   1.0000                                                             
     5  3  2.50        -1.3606   0.0000                                                             
   Description                                                                                      
     l       E           TYP  RCUT    TYP  RCUT                                                     
     1    -37.8224449     23  2.500                                                                 
     1      1.3605826     23  2.500                                                                 
     2     -2.6454718     23  2.500                                                                 
     2     -0.6258570     23  2.500                                                                 
     0     -4.9622674     23  2.500                                                                 
     0      4.7531427     23  2.500                                                                 
  local pseudopotential read in
  partial core-charges read in
  partial kinetic energy density read in
  atomic valenz-charges read in
  non local Contribution for L=           1  read in
    real space projection operators read in
  non local Contribution for L=           1  read in
    real space projection operators read in
  non local Contribution for L=           2  read in
    real space projection operators read in
  non local Contribution for L=           2  read in
    real space projection operators read in
  non local Contribution for L=           0  read in
    real space projection operators read in
  non local Contribution for L=           0  read in
    real space projection operators read in
    PAW grid and wavefunctions read in
 
   number of l-projection  operators is LMAX  =           6
   number of lm-projection operators is LMMAX =          18
 
 POTCAR:    PAW_PBE W_sv 04Sep2015                
   SHA256 =  931c2d770f65867ef30f3db3421922900fc0890ebac5c3e12f63b6a2064023d7 W_sv/POTCAR           
   COPYR  = (c) Copyright 04Sep2015 Georg Kresse                                                    
   COPYR  = This file is part of the software VASP. Any use, copying, and all other rights are regul
   COPYR  = If you do not have a valid VASP license, you may not use, copy or distribute this file. 
   VRHFIN =W : 5p6s5d                                                                               
   LEXCH  = PE                                                                                      
   EATOM  =  1865.5791 eV,  137.1162 Ry                                                             
                                                                                                    
   TITEL  = PAW_PBE W_sv 04Sep2015                                                                  
   LULTRA =        F    use ultrasoft PP ?                                                          
   IUNSCR =        1    unscreen: 0-lin 1-nonlin 2-no                                               
   RPACOR =    2.330    partial core radius                                                         
   POMASS =  183.850; ZVAL   =   14.000    mass and valenz                                          
   RCORE  =    2.500    outmost cutoff radius                                                       
   RWIGS  =    2.750; RWIGS  =    1.455    wigner-seitz radius (au A)                               
   ENMAX  =  223.057; ENMIN  =  167.293 eV                                                          
   ICORE  =        3    local potential                                                             
   LCOR   =        T    correct aug charges                                                         
   LPAW   =        T    paw PP                                                                      
   EAUG   =  373.438                                                                                
   DEXC   =    0.000                                                                                
   RMAX   =    2.565    core radius for proj-oper                                                   
   RAUG   =    1.300    factor for augmentation sphere                                              
   RDEP   =    2.539    radius for radial grids                                                     
   RDEPT  =    2.126    core radius for aug-charge                                                  
                                                                                                    
   Atomic configuration                                                                             
   15 entries                                                                                       
     n  l   j            E        occ.                                                              
     1  0  0.50    -69465.5834   2.0000                                                             
     2  0  0.50    -11986.2640   2.0000                                                             
     2  1  1.50    -10479.8613   6.0000                                                             
     3  0  0.50     -2759.0756   2.0000                                                             
     3  1  1.50     -2313.1855   6.0000                                                             
     3  2  2.50     -1801.1183  10.0000                                                             
     4  0  0.50      -567.6789   2.0000                                                             
     4  1  1.50      -421.4692   6.0000                                                             
     4  2  2.50      -236.3471  10.0000                                                             
     4  3  3.50       -31.2665  14.0000                                                             
     5  0  0.50       -77.1084   2.0000                                                             
     6  0  0.50        -5.1438   1.0000                                                             
     5  1  1.50       -41.3856   6.0000                                                             
     5  2  2.50        -3.3185   5.0000                                                             
     5  3  2.50        -1.3606   0.0000                                                             
   Description                                                                                      
     l       E           TYP  RCUT    TYP  RCUT                                                     
     0    -77.1084470     23  2.100                                                                 
     0     -5.1437956     23  2.300                                                                 
     1    -41.3855615     23  2.500                                                                 
     1     -2.7211652     23  2.500                                                                 
     2     -3.3185025     23  2.500                                                                 
     2     -1.5965151     23  2.500                                                                 
     3     -1.3605826     23  2.500                                                                 
  local pseudopotential read in
  partial core-charges read in
  partial kinetic energy density read in
  kinetic energy density of atom read in
  atomic valenz-charges read in
  non local Contribution for L=           0  read in
    real space projection operators read in
  non local Contribution for L=           0  read in
    real space projection operators read in
  non local Contribution for L=           1  read in
    real space projection operators read in
  non local Contribution for L=           1  read in
    real space projection operators read in
  non local Contribution for L=           2  read in
    real space projection operators read in
  non local Contribution for L=           2  read in
    real space projection operators read in
    PAW grid and wavefunctions read in
 
   number of l-projection  operators is LMAX  =           6
   number of lm-projection operators is LMMAX =          18
 
 -----------------------------------------------------------------------------
|                                                                             |
|               ----> ADVICE to this user running VASP <----                  |
|                                                                             |
|     You have a (more or less) 'large supercell' and for larger cells it     |
|     might be more efficient to use real-space projection operators.         |
|     Therefore, try LREAL= Auto in the INCAR file.                           |
|     Mind: For very accurate calculation, you might also keep the            |
|     reciprocal projection scheme (i.e. LREAL=.FALSE.).                      |
|                                                                             |
 -----------------------------------------------------------------------------

  PAW_PBE Nb_sv 25May2007               :
 energy of atom  1       EATOM=-1555.1913
 kinetic energy error for atom=    0.2155 (will be added to EATOM!!)
  PAW_PBE Mo_sv 02Feb2006               :
 energy of atom  2       EATOM=-1862.2866
 kinetic energy error for atom=    0.1102 (will be added to EATOM!!)
  PAW_PBE Ta_pv 07Sep2000               :
 energy of atom  3       EATOM=-1047.1984
 kinetic energy error for atom=    0.0394 (will be added to EATOM!!)
  PAW_PBE W_sv 04Sep2015                :
 energy of atom  4       EATOM=-1865.5791
 kinetic energy error for atom=    0.0589 (will be added to EATOM!!)
 
 
 POSCAR: Nb-Mo-Ta-W alloy
  positions in direct lattice
  No initial velocities read in
 exchange correlation table for  LEXCH =        8
   RHO(1)=    0.500       N(1)  =     2000
   RHO(2)=  100.500       N(2)  =     4000
 


--------------------------------------------------------------------------------------------------------


 ion  position               nearest neighbor table
   1  0.375  0.875  0.250-   4 2.85  15 2.85  40 2.85  41 2.85  43 2.85  44 2.85  46 2.85  50 2.85
                            38 3.29  39 3.29  38 3.29
   2  0.875  0.125  0.250-   7 2.85  14 2.85  19 2.85  52 2.85  54 2.85  59 2.85  62 2.85  64 2.85
                            34 3.29
   3  0.000  0.750  0.500-   8 2.85   9 2.85  28 2.85  36 2.85  47 2.85  48 2.85  53 2.85  61 2.85
                            43 3.29
   4  0.500  0.750  0.500-   1 2.85  22 2.85  27 2.85  37 2.85  38 2.85  39 2.85  42 2.85  58 2.85
                            40 3.29  43 3.29  41 3.29  40 3.29
   5  0.750  0.500  0.000-   8 2.85  21 2.85  22 2.85  42 2.85  47 2.85  56 2.85  57 2.85  60 2.85

   6  0.375  0.125  0.250-  15 2.85  20 2.85  24 2.85  32 2.85  41 2.85  44 2.85  45 2.85  50 2.85
                            30 3.29  34 3.29
   7  0.000  0.000  0.500-   2 2.85  18 2.85  28 2.85  31 2.85  34 2.85  36 2.85  53 2.85  61 2.85

   8  0.875  0.625  0.750-   3 2.85   5 2.85  10 2.85  16 2.85  49 2.85  51 2.85  55 2.85  63 2.85
                            28 3.29  42 3.29  47 3.29  48 3.29  47 3.29
   9  0.125  0.625  0.250-   3 2.85  10 2.85  16 2.85  25 2.85  33 2.85  43 2.85  46 2.85  51 2.85
                            47 3.29  48 3.29  39 3.29  48 3.29
  10  0.000  0.750  0.000-   8 2.85   9 2.85  28 2.85  36 2.85  47 2.85  48 2.85  53 2.85  61 2.85
                            49 3.29  52 3.29  16 3.29  46 3.29
  11  0.500  0.500  0.500-  17 2.85  22 2.85  30 2.85  39 2.85  42 2.85  56 2.85  57 2.85  58 2.85
                            33 3.29  13 3.29  20 3.29  63 3.29  13 3.29
  12  0.125  0.375  0.250-  16 2.85  25 2.85  32 2.85  33 2.85  45 2.85  51 2.85  62 2.85  64 2.85
                            30 3.29  21 3.29  29 3.29  34 3.29  29 3.29
  13  0.500  0.500  0.000-  17 2.85  22 2.85  30 2.85  39 2.85  42 2.85  56 2.85  57 2.85  58 2.85
                            25 3.29  11 3.29  24 3.29  40 3.29  11 3.29
  14  0.750  0.250  0.000-   2 2.85  18 2.85  21 2.85  23 2.85  35 2.85  56 2.85  57 2.85  60 2.85
                            54 3.29  59 3.29  24 3.29  62 3.29  59 3.29
  15  0.250  0.000  0.500-   1 2.85   6 2.85  26 2.85  31 2.85  34 2.85  36 2.85  38 2.85  53 2.85
                            41 3.29  43 3.29  50 3.29  32 3.29  50 3.29
  16  0.000  0.500  0.000-   8 2.85   9 2.85  12 2.85  21 2.85  29 2.85  47 2.85  48 2.85  60 2.85
                            10 3.29  51 3.29  25 3.29  62 3.29  51 3.29
  17  0.375  0.375  0.750-  11 2.85  13 2.85  20 2.85  24 2.85  25 2.85  32 2.85  33 2.85  45 2.85
                            26 3.29  29 3.29  30 3.29  57 3.29  58 3.29  30 3.29
  18  0.875  0.125  0.750-   7 2.85  14 2.85  19 2.85  52 2.85  54 2.85  59 2.85  62 2.85  64 2.85
                            35 3.29  60 3.29  28 3.29  31 3.29
  19  0.750  0.000  0.500-   2 2.85  18 2.85  23 2.85  27 2.85  28 2.85  35 2.85  37 2.85  61 2.85
                            54 3.29  55 3.29  59 3.29  41 3.29  54 3.29
  20  0.500  0.250  0.500-   6 2.85  17 2.85  23 2.85  26 2.85  30 2.85  35 2.85  56 2.85  57 2.85
                            11 3.29  41 3.29  24 3.29  32 3.29  59 3.29  24 3.29
  21  0.875  0.375  0.250-   5 2.85  14 2.85  16 2.85  51 2.85  59 2.85  62 2.85  63 2.85  64 2.85
                            60 3.29  12 3.29  56 3.29  47 3.29  60 3.29
  22  0.625  0.625  0.250-   4 2.85   5 2.85  11 2.85  13 2.85  40 2.85  49 2.85  55 2.85  63 2.85
                            47 3.29  39 3.29  27 3.29  56 3.29  42 3.29  42 3.29
  23  0.625  0.125  0.250-  14 2.85  19 2.85  20 2.85  24 2.85  41 2.85  44 2.85  54 2.85  59 2.85
                            27 3.29  56 3.29  35 3.29  35 3.29
  24  0.500  0.250  0.000-   6 2.85  17 2.85  23 2.85  26 2.85  30 2.85  35 2.85  56 2.85  57 2.85
                            14 3.29  44 3.29  45 3.29  13 3.29  20 3.29  20 3.29
  25  0.250  0.500  0.000-   9 2.85  12 2.85  17 2.85  29 2.85  30 2.85  39 2.85  48 2.85  58 2.85
                            16 3.29  45 3.29  46 3.29  13 3.29  33 3.29  33 3.29
  26  0.375  0.125  0.750-  15 2.85  20 2.85  24 2.85  32 2.85  41 2.85  44 2.85  45 2.85  50 2.85
                            31 3.29  17 3.29  35 3.29  38 3.29
  27  0.625  0.875  0.250-   4 2.85  19 2.85  40 2.85  41 2.85  44 2.85  49 2.85  54 2.85  55 2.85
                            22 3.29  23 3.29  37 3.29  61 3.29  37 3.29
  28  0.875  0.875  0.750-   3 2.85   7 2.85  10 2.85  19 2.85  49 2.85  52 2.85  54 2.85  55 2.85
                            18 3.29   8 3.29  36 3.29  37 3.29  61 3.29  61 3.29
  29  0.125  0.375  0.750-  16 2.85  25 2.85  32 2.85  33 2.85  45 2.85  51 2.85  62 2.85  64 2.85
                            48 3.29  17 3.29  60 3.29  12 3.29  31 3.29  12 3.29
  30  0.375  0.375  0.250-  11 2.85  13 2.85  20 2.85  24 2.85  25 2.85  32 2.85  33 2.85  45 2.85
                            12 3.29   6 3.29  39 3.29  17 3.29  56 3.29  17 3.29
  31  0.125  0.125  0.750-   7 2.85  15 2.85  32 2.85  45 2.85  50 2.85  52 2.85  62 2.85  64 2.85
                            26 3.29  29 3.29  18 3.29  34 3.29  36 3.29  34 3.29
  32  0.250  0.250  0.500-   6 2.85  12 2.85  17 2.85  26 2.85  29 2.85  30 2.85  31 2.85  34 2.85
                            20 3.29  33 3.29  15 3.29  45 3.29  64 3.29  45 3.29
  33  0.250  0.500  0.500-   9 2.85  12 2.85  17 2.85  29 2.85  30 2.85  39 2.85  48 2.85  58 2.85
                            11 3.29  43 3.29  25 3.29  51 3.29  32 3.29  25 3.29
  34  0.125  0.125  0.250-   7 2.85  15 2.85  32 2.85  45 2.85  50 2.85  52 2.85  62 2.85  64 2.85
                             6 3.29  31 3.29  53 3.29   2 3.29  12 3.29  31 3.29
  35  0.625  0.125  0.750-  14 2.85  19 2.85  20 2.85  24 2.85  41 2.85  44 2.85  54 2.85  59 2.85
                            23 3.29  18 3.29  26 3.29  57 3.29  37 3.29  23 3.29
  36  0.125  0.875  0.750-   3 2.85   7 2.85  10 2.85  15 2.85  43 2.85  46 2.85  50 2.85  52 2.85
                            31 3.29  48 3.29  38 3.29  28 3.29  53 3.29  53 3.29
  37  0.625  0.875  0.750-   4 2.85  19 2.85  40 2.85  41 2.85  44 2.85  49 2.85  54 2.85  55 2.85
                            42 3.29  35 3.29  38 3.29  27 3.29  28 3.29  27 3.29
  38  0.375  0.875  0.750-   4 2.85  15 2.85  40 2.85  41 2.85  43 2.85  44 2.85  46 2.85  50 2.85
                            36 3.29  37 3.29   1 3.29  26 3.29  58 3.29   1 3.29
  39  0.375  0.625  0.250-   4 2.85  11 2.85  13 2.85  25 2.85  33 2.85  40 2.85  43 2.85  46 2.85
                             9 3.29  22 3.29   1 3.29  30 3.29  58 3.29  58 3.29
  40  0.500  0.750  0.000-   1 2.85  22 2.85  27 2.85  37 2.85  38 2.85  39 2.85  42 2.85  58 2.85
                            13 3.29  44 3.29  46 3.29  49 3.29   4 3.29   4 3.29
  41  0.500  0.000  0.500-   1 2.85   6 2.85  23 2.85  26 2.85  27 2.85  35 2.85  37 2.85  38 2.85
                            19 3.29  20 3.29   4 3.29  15 3.29  44 3.29  44 3.29
  42  0.625  0.625  0.750-   4 2.85   5 2.85  11 2.85  13 2.85  40 2.85  49 2.85  55 2.85  63 2.85
                            22 3.29  37 3.29  57 3.29  58 3.29   8 3.29  22 3.29
  43  0.250  0.750  0.500-   1 2.85   9 2.85  36 2.85  38 2.85  39 2.85  48 2.85  53 2.85  58 2.85
                            15 3.29  46 3.29  33 3.29   4 3.29   3 3.29  46 3.29
  44  0.500  0.000  0.000-   1 2.85   6 2.85  23 2.85  26 2.85  27 2.85  35 2.85  37 2.85  38 2.85
                            24 3.29  40 3.29  41 3.29  50 3.29  54 3.29  41 3.29
  45  0.250  0.250  0.000-   6 2.85  12 2.85  17 2.85  26 2.85  29 2.85  30 2.85  31 2.85  34 2.85
                            25 3.29  32 3.29  24 3.29  50 3.29  62 3.29  32 3.29
  46  0.250  0.750  0.000-   1 2.85   9 2.85  36 2.85  38 2.85  39 2.85  48 2.85  53 2.85  58 2.85
                            43 3.29  25 3.29  50 3.29  10 3.29  40 3.29  43 3.29
  47  0.875  0.625  0.250-   3 2.85   5 2.85  10 2.85  16 2.85  49 2.85  51 2.85  55 2.85  63 2.85
                             8 3.29   9 3.29  21 3.29  61 3.29  22 3.29   8 3.29
  48  0.125  0.625  0.750-   3 2.85  10 2.85  16 2.85  25 2.85  33 2.85  43 2.85  46 2.85  51 2.85
                            36 3.29   8 3.29  29 3.29   9 3.29  58 3.29   9 3.29
  49  0.750  0.750  0.000-   8 2.85  22 2.85  27 2.85  28 2.85  37 2.85  42 2.85  47 2.85  61 2.85
                            40 3.29  54 3.29  55 3.29  10 3.29  55 3.29
  50  0.250  0.000  0.000-   1 2.85   6 2.85  26 2.85  31 2.85  34 2.85  36 2.85  38 2.85  53 2.85
                            44 3.29  45 3.29  46 3.29  52 3.29  15 3.29  15 3.29
  51  0.000  0.500  0.500-   8 2.85   9 2.85  12 2.85  21 2.85  29 2.85  47 2.85  48 2.85  60 2.85
                            33 3.29  16 3.29  63 3.29  64 3.29  16 3.29
  52  0.000  0.000  0.000-   2 2.85  18 2.85  28 2.85  31 2.85  34 2.85  36 2.85  53 2.85  61 2.85
                            10 3.29  54 3.29  50 3.29  62 3.29
  53  0.125  0.875  0.250-   3 2.85   7 2.85  10 2.85  15 2.85  43 2.85  46 2.85  50 2.85  52 2.85
                            34 3.29  36 3.29  61 3.29  36 3.29
  54  0.750  0.000  0.000-   2 2.85  18 2.85  23 2.85  27 2.85  28 2.85  35 2.85  37 2.85  61 2.85
                            14 3.29  44 3.29  49 3.29  52 3.29  19 3.29  19 3.29
  55  0.750  0.750  0.500-   8 2.85  22 2.85  27 2.85  28 2.85  37 2.85  42 2.85  47 2.85  61 2.85
                            49 3.29  19 3.29  63 3.29  49 3.29
  56  0.625  0.375  0.250-   5 2.85  11 2.85  13 2.85  14 2.85  20 2.85  24 2.85  59 2.85  63 2.85
                            21 3.29  30 3.29  57 3.29  22 3.29  23 3.29  57 3.29
  57  0.625  0.375  0.750-   5 2.85  11 2.85  13 2.85  14 2.85  20 2.85  24 2.85  59 2.85  63 2.85
                            42 3.29  56 3.29  17 3.29  60 3.29  35 3.29  56 3.29
  58  0.375  0.625  0.750-   4 2.85  11 2.85  13 2.85  25 2.85  33 2.85  40 2.85  43 2.85  46 2.85
                            17 3.29  42 3.29  38 3.29  39 3.29  48 3.29  39 3.29
  59  0.750  0.250  0.500-   2 2.85  18 2.85  21 2.85  23 2.85  35 2.85  56 2.85  57 2.85  60 2.85
                            14 3.29  19 3.29  20 3.29  63 3.29  64 3.29  14 3.29
  60  0.875  0.375  0.750-   5 2.85  14 2.85  16 2.85  51 2.85  59 2.85  62 2.85  63 2.85  64 2.85
                            21 3.29  29 3.29  18 3.29  57 3.29  21 3.29
  61  0.875  0.875  0.250-   3 2.85   7 2.85  10 2.85  19 2.85  49 2.85  52 2.85  54 2.85  55 2.85
                            28 3.29  53 3.29  47 3.29  27 3.29  28 3.29
  62  0.000  0.250  0.000-   2 2.85  12 2.85  18 2.85  21 2.85  29 2.85  31 2.85  34 2.85  60 2.85
                            14 3.29  45 3.29  52 3.29  16 3.29  64 3.29  64 3.29
  63  0.750  0.500  0.500-   8 2.85  21 2.85  22 2.85  42 2.85  47 2.85  56 2.85  57 2.85  60 2.85
                            11 3.29  51 3.29  59 3.29  55 3.29
  64  0.000  0.250  0.500-   2 2.85  12 2.85  18 2.85  21 2.85  29 2.85  31 2.85  34 2.85  60 2.85
                            51 3.29  59 3.29  32 3.29  62 3.29  62 3.29
 
  LATTYP: Found a simple tetragonal cell.
 ALAT       =    13.1600000000
 C/A-ratio  =     0.5000000000
  
  Lattice vectors:
  
 A1 = (  13.1600000000,   0.0000000000,   0.0000000000)
 A2 = (   0.0000000000,  13.1600000000,   0.0000000000)
 A3 = (   0.0000000000,   0.0000000000,   6.5800000000)


Analysis of symmetry for initial positions (statically):
=====================================================================
 Subroutine PRICEL returns:
 Original cell was already a primitive cell.
 

 Routine SETGRP: Setting up the symmetry group for a 
 simple tetragonal supercell.


 Subroutine GETGRP returns: Found  1 space group operations
 (whereof  1 operations were pure point group operations)
 out of a pool of 16 trial point group operations.


The static configuration has the point symmetry C_1 .


Analysis of symmetry for dynamics (positions and initial velocities):
=====================================================================
 Subroutine PRICEL returns:
 Original cell was already a primitive cell.
 

 Routine SETGRP: Setting up the symmetry group for a 
 simple tetragonal supercell.


 Subroutine GETGRP returns: Found  1 space group operations
 (whereof  1 operations were pure point group operations)
 out of a pool of 16 trial point group operations.


The dynamic configuration has the point symmetry C_1 .


 Subroutine INISYM returns: Found  1 space group operations
 (whereof  1 operations are pure point group operations),
 and found     1 'primitive' translations


----------------------------------------------------------------------------------------

                                     Primitive cell                                     

  volume of cell :    1139.5612

  direct lattice vectors                    reciprocal lattice vectors
    13.160000000  0.000000000  0.000000000     0.075987842  0.000000000  0.000000000
     0.000000000 13.160000000  0.000000000     0.000000000  0.075987842  0.000000000
     0.000000000  0.000000000  6.580000000     0.000000000  0.000000000  0.151975684

  length of vectors
    13.160000000 13.160000000  6.580000000     0.075987842  0.075987842  0.151975684

  position of ions in fractional coordinates (direct lattice)
     0.375000000  0.875000000  0.250000000
     0.875000000  0.125000000  0.250000000
     0.000000000  0.750000000  0.500000000
     0.500000000  0.750000000  0.500000000
     0.750000000  0.500000000  0.000000000
     0.375000000  0.125000000  0.250000000
     0.000000000  0.000000000  0.500000000
     0.875000000  0.625000000  0.750000000
     0.125000000  0.625000000  0.250000000
     0.000000000  0.750000000  0.000000000
     0.500000000  0.500000000  0.500000000
     0.125000000  0.375000000  0.250000000
     0.500000000  0.500000000  0.000000000
     0.750000000  0.250000000  0.000000000
     0.250000000  0.000000000  0.500000000
     0.000000000  0.500000000  0.000000000
     0.375000000  0.375000000  0.750000000
     0.875000000  0.125000000  0.750000000
     0.750000000  0.000000000  0.500000000
     0.500000000  0.250000000  0.500000000
     0.875000000  0.375000000  0.250000000
     0.625000000  0.625000000  0.250000000
     0.625000000  0.125000000  0.250000000
     0.500000000  0.250000000  0.000000000
     0.250000000  0.500000000  0.000000000
     0.375000000  0.125000000  0.750000000
     0.625000000  0.875000000  0.250000000
     0.875000000  0.875000000  0.750000000
     0.125000000  0.375000000  0.750000000
     0.375000000  0.375000000  0.250000000
     0.125000000  0.125000000  0.750000000
     0.250000000  0.250000000  0.500000000
     0.250000000  0.500000000  0.500000000
     0.125000000  0.125000000  0.250000000
     0.625000000  0.125000000  0.750000000
     0.125000000  0.875000000  0.750000000
     0.625000000  0.875000000  0.750000000
     0.375000000  0.875000000  0.750000000
     0.375000000  0.625000000  0.250000000
     0.500000000  0.750000000  0.000000000
     0.500000000  0.000000000  0.500000000
     0.625000000  0.625000000  0.750000000
     0.250000000  0.750000000  0.500000000
     0.500000000  0.000000000  0.000000000
     0.250000000  0.250000000  0.000000000
     0.250000000  0.750000000  0.000000000
     0.875000000  0.625000000  0.250000000
     0.125000000  0.625000000  0.750000000
     0.750000000  0.750000000  0.000000000
     0.250000000  0.000000000  0.000000000
     0.000000000  0.500000000  0.500000000
     0.000000000  0.000000000  0.000000000
     0.125000000  0.875000000  0.250000000
     0.750000000  0.000000000  0.000000000
     0.750000000  0.750000000  0.500000000
     0.625000000  0.375000000  0.250000000
     0.625000000  0.375000000  0.750000000
     0.375000000  0.625000000  0.750000000
     0.750000000  0.250000000  0.500000000
     0.875000000  0.375000000  0.750000000
     0.875000000  0.875000000  0.250000000
     0.000000000  0.250000000  0.000000000
     0.750000000  0.500000000  0.500000000
     0.000000000  0.250000000  0.500000000

  ion indices of the primitive-cell ions
   primitive index   ion index
                 1           1
                 2           2
                 3           3
                 4           4
                 5           5
                 6           6
                 7           7
                 8           8
                 9           9
                10          10
                11          11
                12          12
                13          13
                14          14
                15          15
                16          16
                17          17
                18          18
                19          19
                20          20
                21          21
                22          22
                23          23
                24          24
                25          25
                26          26
                27          27
                28          28
                29          29
                30          30
                31          31
                32          32
                33          33
                34          34
                35          35
                36          36
                37          37
                38          38
                39          39
                40          40
                41          41
                42          42
                43          43
                44          44
                45          45
                46          46
                47          47
                48          48
                49          49
                50          50
                51          51
                52          52
                53          53
                54          54
                55          55
                56          56
                57          57
                58          58
                59          59
                60          60
                61          61
                62          62
                63          63
                64          64

----------------------------------------------------------------------------------------

 
 
 KPOINTS: K-Spacing Value to Generate K-Mesh: 0.03

Automatic generation of k-mesh.
 Grid dimensions read from file:
 generate k-points for:    3    3    5

 Generating k-lattice:

  Cartesian coordinates                     Fractional coordinates (reciprocal lattice)
     0.025329281  0.000000000  0.000000000     0.333333333  0.000000000  0.000000000
     0.000000000  0.025329281  0.000000000     0.000000000  0.333333333  0.000000000
     0.000000000  0.000000000  0.030395137     0.000000000  0.000000000  0.200000000

  Length of vectors
     0.025329281  0.025329281  0.030395137

  Shift w.r.t. Gamma in fractional coordinates (k-lattice)
     0.000000000  0.000000000  0.000000000

 
 Subroutine IBZKPT returns following result:
 ===========================================
 
 Found     23 irreducible k-points:
 
 Following reciprocal coordinates:
            Coordinates               Weight
  0.000000  0.000000  0.000000      1.000000
  0.333333  0.000000  0.000000      2.000000
  0.000000  0.333333  0.000000      2.000000
  0.333333  0.333333  0.000000      2.000000
 -0.333333  0.333333  0.000000      2.000000
  0.000000  0.000000  0.200000      2.000000
  0.333333  0.000000  0.200000      2.000000
  0.000000  0.333333  0.200000      2.000000
 -0.333333  0.000000  0.200000      2.000000
  0.000000 -0.333333  0.200000      2.000000
  0.333333  0.333333  0.200000      2.000000
 -0.333333  0.333333  0.200000      2.000000
 -0.333333 -0.333333  0.200000      2.000000
  0.333333 -0.333333  0.200000      2.000000
  0.000000  0.000000  0.400000      2.000000
  0.333333  0.000000  0.400000      2.000000
  0.000000  0.333333  0.400000      2.000000
 -0.333333  0.000000  0.400000      2.000000
  0.000000 -0.333333  0.400000      2.000000
  0.333333  0.333333  0.400000      2.000000
 -0.333333  0.333333  0.400000      2.000000
 -0.333333 -0.333333  0.400000      2.000000
  0.333333 -0.333333  0.400000      2.000000
 
 Following cartesian coordinates:
            Coordinates               Weight
  0.000000  0.000000  0.000000      1.000000
  0.025329  0.000000  0.000000      2.000000
  0.000000  0.025329  0.000000      2.000000
  0.025329  0.025329  0.000000      2.000000
 -0.025329  0.025329  0.000000      2.000000
  0.000000  0.000000  0.030395      2.000000
  0.025329  0.000000  0.030395      2.000000
  0.000000  0.025329  0.030395      2.000000
 -0.025329  0.000000  0.030395      2.000000
  0.000000 -0.025329  0.030395      2.000000
  0.025329  0.025329  0.030395      2.000000
 -0.025329  0.025329  0.030395      2.000000
 -0.025329 -0.025329  0.030395      2.000000
  0.025329 -0.025329  0.030395      2.000000
  0.000000  0.000000  0.060790      2.000000
  0.025329  0.000000  0.060790      2.000000
  0.000000  0.025329  0.060790      2.000000
 -0.025329  0.000000  0.060790      2.000000
  0.000000 -0.025329  0.060790      2.000000
  0.025329  0.025329  0.060790      2.000000
 -0.025329  0.025329  0.060790      2.000000
 -0.025329 -0.025329  0.060790      2.000000
  0.025329 -0.025329  0.060790      2.000000
 


--------------------------------------------------------------------------------------------------------




 Dimension of arrays:
   k-points           NKPTS =     23   k-points in BZ     NKDIM =     23   number of bands    NBANDS=    496
   number of dos      NEDOS =    301   number of ions     NIONS =     64
   non local maximal  LDIM  =      6   non local SUM 2l+1 LMDIM =     18
   total plane-waves  NPLWV = 176400
   max r-space proj   IRMAX =      1   max aug-charges    IRDMAX=   9034
   dimension x,y,z NGX =    70 NGY =   70 NGZ =   36
   dimension x,y,z NGXF=   140 NGYF=  140 NGZF=   72
   support grid    NGXF=   140 NGYF=  140 NGZF=   72
   ions per type =               9  18  21  16
   NGX,Y,Z   is equivalent  to a cutoff of   8.84,  8.84,  9.10 a.u.
   NGXF,Y,Z  is equivalent  to a cutoff of  17.69, 17.69, 18.19 a.u.

 SYSTEM =  unknown system                          
 POSCAR =  Nb-Mo-Ta-W alloy                        

 Startparameter for this run:
   NWRITE =      2    write-flag & timer
   PREC   = accura    normal or accurate (medium, high low for compatibility)
   ISTART =      0    job   : 0-new  1-cont  2-samecut
   ICHARG =      2    charge: 1-file 2-atom 10-const
   ISPIN  =      1    spin polarized calculation?
   LNONCOLLINEAR =      F non collinear calculations
   LSORBIT =      F    spin-orbit coupling
   INIWAV =      1    electr: 0-lowe 1-rand  2-diag
   LASPH  =      F    aspherical Exc in radial PAW
 Electronic Relaxation 1
   ENCUT  =  250.0 eV  18.37 Ry    4.29 a.u.  16.97 16.97  8.48*2*pi/ulx,y,z
   ENINI  =  250.0     initial cutoff
   ENAUG  =  455.7 eV  augmentation charge cutoff
   NELM   =     80;   NELMIN=  2; NELMDL= -5     # of ELM steps 
   EDIFF  = 0.1E-07   stopping-criterion for ELM
   LREAL  =      F    real-space projection
   NLSPLINE    = F    spline interpolate recip. space projectors
   LCOMPAT=      F    compatible to vasp.4.4
   GGA_COMPAT  = T    GGA compatible to vasp.4.4-vasp.4.6
   LMAXPAW     = -100 max onsite density
   LMAXMIX     =    2 max onsite mixed and CHGCAR
   VOSKOWN=      0    Vosko Wilk Nusair interpolation
   ROPT   =    0.00000   0.00000   0.00000   0.00000
 Ionic relaxation
   EDIFFG = -.1E-01   stopping-criterion for IOM
   NSW    =      0    number of steps for IOM
   NBLOCK =      1;   KBLOCK =      1    inner block; outer block 
   IBRION =     -1    ionic relax: 0-MD 1-quasi-New 2-CG
   NFREE  =      0    steps in history (QN), initial steepest desc. (CG)
   ISIF   =      2    stress and relaxation
   IWAVPR =     10    prediction:  0-non 1-charg 2-wave 3-comb
   ISYM   =      2    0-nonsym 1-usesym 2-fastsym
   LCORR  =      T    Harris-Foulkes like correction to forces

   POTIM  = 0.5000    time-step for ionic-motion
   TEIN   =    0.0    initial temperature
   TEBEG  =    0.0;   TEEND  =   0.0 temperature during run
   SMASS  =  -3.00    Nose mass-parameter (am)
   estimated Nose-frequenzy (Omega)   =  0.10E-29 period in steps = 0.13E+47 mass=  -0.396E-26a.u.
   SCALEE = 1.0000    scale energy and forces
   NPACO  =    256;   APACO  = 10.0  distance and # of slots for P.C.
   PSTRESS=    0.0 pullay stress

  Mass of Ions in am
   POMASS =  92.91 95.94180.95183.85
  Ionic Valenz
   ZVAL   =  13.00 14.00 11.00 14.00
  Atomic Wigner-Seitz radii
   RWIGS  =  -1.00 -1.00 -1.00 -1.00
  virtual crystal weights 
   VCA    =   1.00  1.00  1.00  1.00
   NELECT =     824.0000    total number of electrons
   NUPDOWN=      -1.0000    fix difference up-down

 DOS related values:
   EMIN   =  10.00;   EMAX   =-10.00  energy-range for DOS
   EFERMI =   0.00
   ISMEAR =     0;   SIGMA  =   0.02  broadening in eV -4-tet -1-fermi 0-gaus

 Electronic relaxation 2 (details)
   IALGO  =     38    algorithm
   LDIAG  =      T    sub-space diagonalisation (order eigenvalues)
   LSUBROT=      F    optimize rotation matrix (better conditioning)
   TURBO    =      0    0=normal 1=particle mesh
   IRESTART =      0    0=no restart 2=restart with 2 vectors
   NREBOOT  =      0    no. of reboots
   NMIN     =      0    reboot dimension
   EREF     =   0.00    reference energy to select bands
   IMIX   =      4    mixing-type and parameters
     AMIX     =   0.40;   BMIX     =  1.00
     AMIX_MAG =   1.60;   BMIX_MAG =  1.00
     AMIN     =   0.10
     WC   =   100.;   INIMIX=   1;  MIXPRE=   1;  MAXMIX= -45

 Intra band minimization:
   WEIMIN = 0.0000     energy-eigenvalue tresh-hold
   EBREAK =  0.50E-11  absolut break condition
   DEPER  =   0.30     relativ break condition  

   TIME   =   0.40     timestep for ELM

  volume/ion in A,a.u.               =      17.81       120.16
  Fermi-wavevector in a.u.,A,eV,Ry     =   1.469393  2.776750 29.376560  2.159116
  Thomas-Fermi vector in A             =   2.584776
 
 Write flags
   LWAVE        =      F    write WAVECAR
   LDOWNSAMPLE  =      F    k-point downsampling of WAVECAR
   LCHARG       =      F    write CHGCAR
   LVTOT        =      F    write LOCPOT, total local potential
   LVHAR        =      F    write LOCPOT, Hartree potential only
   LELF         =      F    write electronic localiz. function (ELF)
   LORBIT       =      0    0 simple, 1 ext, 2 COOP (PROOUT), +10 PAW based schemes


 Dipole corrections
   LMONO  =      F    monopole corrections only (constant potential shift)
   LDIPOL =      F    correct potential (dipole corrections)
   IDIPOL =      0    1-x, 2-y, 3-z, 4-all directions 
   EPSILON=  1.0000000 bulk dielectric constant

 Core level calculations are selected ICORELEVEL =  1
 Exchange correlation treatment:
   GGA     =    PE    GGA type
   LEXCH   =     8    internal setting for exchange type
   LIBXC   =     F    Libxc                    
   VOSKOWN =     0    Vosko Wilk Nusair interpolation
   LHFCALC =     F    Hartree Fock is set to
   LHFONE  =     F    Hartree Fock one center treatment
   AEXX    =    0.0000 exact exchange contribution

 Linear response parameters
   LEPSILON=     F    determine dielectric tensor
   LRPA    =     F    only Hartree local field effects (RPA)
   LNABLA  =     F    use nabla operator in PAW spheres
   LVEL    =     F    velocity operator in full k-point grid
   CSHIFT  =0.1000    complex shift for real part using Kramers Kronig
   OMEGAMAX=  -1.0    maximum frequency
   DEG_THRESHOLD= 0.2000000E-02 threshold for treating states as degnerate
   RTIME   =   -0.100 relaxation time in fs
  (WPLASMAI=    0.000 imaginary part of plasma frequency in eV, 0.658/RTIME)
   DFIELD  = 0.0000000 0.0000000 0.0000000 field for delta impulse in time
 
  Optional k-point grid parameters
   LKPOINTS_OPT  =     F    use optional k-point grid
   KPOINTS_OPT_MODE=     1    mode for optional k-point grid
 
 Orbital magnetization related:
   ORBITALMAG=     F  switch on orbital magnetization
   LCHIMAG   =     F  perturbation theory with respect to B field
   DQ        =  0.001000  dq finite difference perturbation B field
   LLRAUG    =     F  two centre corrections for induced B field



--------------------------------------------------------------------------------------------------------


 Static calculation
 charge density and potential will be updated during run
 non-spin polarized calculation
 Variant of blocked Davidson
 Davidson routine will perform the subspace rotation
 perform sub-space diagonalisation
    after iterative eigenvector-optimisation
 modified Broyden-mixing scheme, WC =      100.0
 initial mixing is a Kerker type mixing with AMIX =  0.4000 and BMIX =      1.0000
 Hartree-type preconditioning will be used
 using additional bands           84
 reciprocal scheme for non local part
 use partial core corrections
 calculate Harris-corrections to forces 
   (improved forces if not selfconsistent)
 use gradient corrections 
 use of overlap-Matrix (Vanderbilt PP)
 Gauss-broadening in eV      SIGMA  =   0.02


--------------------------------------------------------------------------------------------------------


  energy-cutoff  :      250.00
  volume of cell :     1139.56
      direct lattice vectors                 reciprocal lattice vectors
    13.160000000  0.000000000  0.000000000     0.075987842  0.000000000  0.000000000
     0.000000000 13.160000000  0.000000000     0.000000000  0.075987842  0.000000000
     0.000000000  0.000000000  6.580000000     0.000000000  0.000000000  0.151975684

  length of vectors
    13.160000000 13.160000000  6.580000000     0.075987842  0.075987842  0.151975684


 
 k-points in units of 2pi/SCALE and weight: K-Spacing Value to Generate K-Mesh: 0.03
   0.00000000  0.00000000  0.00000000       0.022
   0.02532928  0.00000000  0.00000000       0.044
   0.00000000  0.02532928  0.00000000       0.044
   0.02532928  0.02532928  0.00000000       0.044
  -0.02532928  0.02532928  0.00000000       0.044
   0.00000000  0.00000000  0.03039514       0.044
   0.02532928  0.00000000  0.03039514       0.044
   0.00000000  0.02532928  0.03039514       0.044
  -0.02532928  0.00000000  0.03039514       0.044
   0.00000000 -0.02532928  0.03039514       0.044
   0.02532928  0.02532928  0.03039514       0.044
  -0.02532928  0.02532928  0.03039514       0.044
  -0.02532928 -0.02532928  0.03039514       0.044
   0.02532928 -0.02532928  0.03039514       0.044
   0.00000000  0.00000000  0.06079027       0.044
   0.02532928  0.00000000  0.06079027       0.044
   0.00000000  0.02532928  0.06079027       0.044
  -0.02532928  0.00000000  0.06079027       0.044
   0.00000000 -0.02532928  0.06079027       0.044
   0.02532928  0.02532928  0.06079027       0.044
  -0.02532928  0.02532928  0.06079027       0.044
  -0.02532928 -0.02532928  0.06079027       0.044
   0.02532928 -0.02532928  0.06079027       0.044
 
 k-points in reciprocal lattice and weights: K-Spacing Value to Generate K-Mesh: 0.03
   0.00000000  0.00000000  0.00000000       0.022
   0.33333333  0.00000000  0.00000000       0.044
   0.00000000  0.33333333  0.00000000       0.044
   0.33333333  0.33333333  0.00000000       0.044
  -0.33333333  0.33333333  0.00000000       0.044
   0.00000000  0.00000000  0.20000000       0.044
   0.33333333  0.00000000  0.20000000       0.044
   0.00000000  0.33333333  0.20000000       0.044
  -0.33333333  0.00000000  0.20000000       0.044
   0.00000000 -0.33333333  0.20000000       0.044
   0.33333333  0.33333333  0.20000000       0.044
  -0.33333333  0.33333333  0.20000000       0.044
  -0.33333333 -0.33333333  0.20000000       0.044
   0.33333333 -0.33333333  0.20000000       0.044
   0.00000000  0.00000000  0.40000000       0.044
   0.33333333  0.00000000  0.40000000       0.044
   0.00000000  0.33333333  0.40000000       0.044
  -0.33333333  0.00000000  0.40000000       0.044
   0.00000000 -0.33333333  0.40000000       0.044
   0.33333333  0.33333333  0.40000000       0.044
  -0.33333333  0.33333333  0.40000000       0.044
  -0.33333333 -0.33333333  0.40000000       0.044
   0.33333333 -0.33333333  0.40000000       0.044
 
 position of ions in fractional coordinates (direct lattice) 
   0.37500000  0.87500000  0.25000000
   0.87500000  0.12500000  0.25000000
   0.00000000  0.75000000  0.50000000
   0.50000000  0.75000000  0.50000000
   0.75000000  0.50000000  0.00000000
   0.37500000  0.12500000  0.25000000
   0.00000000  0.00000000  0.50000000
   0.87500000  0.62500000  0.75000000
   0.12500000  0.62500000  0.25000000
   0.00000000  0.75000000  0.00000000
   0.50000000  0.50000000  0.50000000
   0.12500000  0.37500000  0.25000000
   0.50000000  0.50000000  0.00000000
   0.75000000  0.25000000  0.00000000
   0.25000000  0.00000000  0.50000000
   0.00000000  0.50000000  0.00000000
   0.37500000  0.37500000  0.75000000
   0.87500000  0.12500000  0.75000000
   0.75000000  0.00000000  0.50000000
   0.50000000  0.25000000  0.50000000
   0.87500000  0.37500000  0.25000000
   0.62500000  0.62500000  0.25000000
   0.62500000  0.12500000  0.25000000
   0.50000000  0.25000000  0.00000000
   0.25000000  0.50000000  0.00000000
   0.37500000  0.12500000  0.75000000
   0.62500000  0.87500000  0.25000000
   0.87500000  0.87500000  0.75000000
   0.12500000  0.37500000  0.75000000
   0.37500000  0.37500000  0.25000000
   0.12500000  0.12500000  0.75000000
   0.25000000  0.25000000  0.50000000
   0.25000000  0.50000000  0.50000000
   0.12500000  0.12500000  0.25000000
   0.62500000  0.12500000  0.75000000
   0.12500000  0.87500000  0.75000000
   0.62500000  0.87500000  0.75000000
   0.37500000  0.87500000  0.75000000
   0.37500000  0.62500000  0.25000000
   0.50000000  0.75000000  0.00000000
   0.50000000  0.00000000  0.50000000
   0.62500000  0.62500000  0.75000000
   0.25000000  0.75000000  0.50000000
   0.50000000  0.00000000  0.00000000
   0.25000000  0.25000000  0.00000000
   0.25000000  0.75000000  0.00000000
   0.87500000  0.62500000  0.25000000
   0.12500000  0.62500000  0.75000000
   0.75000000  0.75000000  0.00000000
   0.25000000  0.00000000  0.00000000
   0.00000000  0.50000000  0.50000000
   0.00000000  0.00000000  0.00000000
   0.12500000  0.87500000  0.25000000
   0.75000000  0.00000000  0.00000000
   0.75000000  0.75000000  0.50000000
   0.62500000  0.37500000  0.25000000
   0.62500000  0.37500000  0.75000000
   0.37500000  0.62500000  0.75000000
   0.75000000  0.25000000  0.50000000
   0.87500000  0.37500000  0.75000000
   0.87500000  0.87500000  0.25000000
   0.00000000  0.25000000  0.00000000
   0.75000000  0.50000000  0.50000000
   0.00000000  0.25000000  0.50000000
 
 position of ions in cartesian coordinates  (Angst):
   4.93500000 11.51500000  1.64500000
  11.51500000  1.64500000  1.64500000
   0.00000000  9.87000000  3.29000000
   6.58000000  9.87000000  3.29000000
   9.87000000  6.58000000  0.00000000
   4.93500000  1.64500000  1.64500000
   0.00000000  0.00000000  3.29000000
  11.51500000  8.22500000  4.93500000
   1.64500000  8.22500000  1.64500000
   0.00000000  9.87000000  0.00000000
   6.58000000  6.58000000  3.29000000
   1.64500000  4.93500000  1.64500000
   6.58000000  6.58000000  0.00000000
   9.87000000  3.29000000  0.00000000
   3.29000000  0.00000000  3.29000000
   0.00000000  6.58000000  0.00000000
   4.93500000  4.93500000  4.93500000
  11.51500000  1.64500000  4.93500000
   9.87000000  0.00000000  3.29000000
   6.58000000  3.29000000  3.29000000
  11.51500000  4.93500000  1.64500000
   8.22500000  8.22500000  1.64500000
   8.22500000  1.64500000  1.64500000
   6.58000000  3.29000000  0.00000000
   3.29000000  6.58000000  0.00000000
   4.93500000  1.64500000  4.93500000
   8.22500000 11.51500000  1.64500000
  11.51500000 11.51500000  4.93500000
   1.64500000  4.93500000  4.93500000
   4.93500000  4.93500000  1.64500000
   1.64500000  1.64500000  4.93500000
   3.29000000  3.29000000  3.29000000
   3.29000000  6.58000000  3.29000000
   1.64500000  1.64500000  1.64500000
   8.22500000  1.64500000  4.93500000
   1.64500000 11.51500000  4.93500000
   8.22500000 11.51500000  4.93500000
   4.93500000 11.51500000  4.93500000
   4.93500000  8.22500000  1.64500000
   6.58000000  9.87000000  0.00000000
   6.58000000  0.00000000  3.29000000
   8.22500000  8.22500000  4.93500000
   3.29000000  9.87000000  3.29000000
   6.58000000  0.00000000  0.00000000
   3.29000000  3.29000000  0.00000000
   3.29000000  9.87000000  0.00000000
  11.51500000  8.22500000  1.64500000
   1.64500000  8.22500000  4.93500000
   9.87000000  9.87000000  0.00000000
   3.29000000  0.00000000  0.00000000
   0.00000000  6.58000000  3.29000000
   0.00000000  0.00000000  0.00000000
   1.64500000 11.51500000  1.64500000
   9.87000000  0.00000000  0.00000000
   9.87000000  9.87000000  3.29000000
   8.22500000  4.93500000  1.64500000
   8.22500000  4.93500000  4.93500000
   4.93500000  8.22500000  4.93500000
   9.87000000  3.29000000  3.29000000
  11.51500000  4.93500000  4.93500000
  11.51500000 11.51500000  1.64500000
   0.00000000  3.29000000  0.00000000
   9.87000000  6.58000000  3.29000000
   0.00000000  3.29000000  3.29000000
 


--------------------------------------------------------------------------------------------------------


 k-point   1 :   0.0000 0.0000 0.0000  plane waves:   10181
 k-point   2 :   0.3333 0.0000 0.0000  plane waves:   10238
 k-point   3 :   0.0000 0.3333 0.0000  plane waves:   10238
 k-point   4 :   0.3333 0.3333 0.0000  plane waves:   10248
 k-point   5 :  -0.3333 0.3333 0.0000  plane waves:   10248
 k-point   6 :   0.0000 0.0000 0.2000  plane waves:   10193
 k-point   7 :   0.3333 0.0000 0.2000  plane waves:   10246
 k-point   8 :   0.0000 0.3333 0.2000  plane waves:   10246
 k-point   9 :  -0.3333 0.0000 0.2000  plane waves:   10246
 k-point  10 :   0.0000-0.3333 0.2000  plane waves:   10246
 k-point  11 :   0.3333 0.3333 0.2000  plane waves:   10238
 k-point  12 :  -0.3333 0.3333 0.2000  plane waves:   10238
 k-point  13 :  -0.3333-0.3333 0.2000  plane waves:   10238
 k-point  14 :   0.3333-0.3333 0.2000  plane waves:   10238
 k-point  15 :   0.0000 0.0000 0.4000  plane waves:   10201
 k-point  16 :   0.3333 0.0000 0.4000  plane waves:   10223
 k-point  17 :   0.0000 0.3333 0.4000  plane waves:   10223
 k-point  18 :  -0.3333 0.0000 0.4000  plane waves:   10223
 k-point  19 :   0.0000-0.3333 0.4000  plane waves:   10223
 k-point  20 :   0.3333 0.3333 0.4000  plane waves:   10193
 k-point  21 :  -0.3333 0.3333 0.4000  plane waves:   10193
 k-point  22 :  -0.3333-0.3333 0.4000  plane waves:   10193
 k-point  23 :   0.3333-0.3333 0.4000  plane waves:   10193

 maximum and minimum number of plane-waves per node :       880      830

 maximum number of plane-waves:     10248
 maximum index in each direction: 
   IXMAX=   17   IYMAX=   17   IZMAX=    8
   IXMIN=  -17   IYMIN=  -17   IZMIN=   -8


 parallel 3D FFT for wavefunctions:
    minimum data exchange during FFTs selected (reduces bandwidth)
 parallel 3D FFT for charge:
    minimum data exchange during FFTs selected (reduces bandwidth)


 total amount of memory used by VASP MPI-rank0    90637. kBytes
=======================================================================

   base      :      30000. kBytes
   nonl-proj :      12216. kBytes
   fftplans  :       1504. kBytes
   grid      :       2835. kBytes
   one-center:         93. kBytes
   wavefun   :      43989. kBytes
 
     INWAV:  cpu time      0.0000: real time      0.0000
 Broyden mixing: mesh for mixing (old mesh)
   NGX = 33   NGY = 33   NGZ = 17
  (NGX  =140   NGY  =140   NGZ  = 72)
  gives a total of  18513 points

 initial charge density was supplied:
 charge density of overlapping atoms calculated
 number of electron     824.0000000 magnetization 
 keeping initial charge density in first step


--------------------------------------------------------------------------------------------------------


 Maximum index for augmentation-charges          505 (set IRDMAX)


--------------------------------------------------------------------------------------------------------


 First call to EWALD:  gamma=   0.170
 Maximum number of real-space cells 2x 2x 4
 Maximum number of reciprocal cells 3x 3x 2

    FEWALD:  cpu time      0.2079: real time      0.2086


--------------------------------------- Iteration      1(   1)  ---------------------------------------


    POTLOK:  cpu time      0.2878: real time      0.4522
    SETDIJ:  cpu time      0.2927: real time      0.3169
     EDDAV:  cpu time    114.9802: real time    123.4049
       DOS:  cpu time      0.4737: real time      0.4754
    --------------------------------------------
      LOOP:  cpu time    116.0345: real time    124.6494

 eigenvalue-minimisations  : 23304
 total energy-change (2. order) : 0.7897470E+04  (-0.3204318E+05)
 number of electron     824.0000000 magnetization 
 augmentation part      824.0000000 magnetization 

 Free energy of the ion-electron system (eV)
  ---------------------------------------------------
  alpha Z        PSCENC =      7603.51887656
  Ewald energy   TEWEN  =    -84460.49065787
  -Hartree energ DENC   =    -16245.63251733
  -exchange      EXHF   =         0.00000000
  -V(xc)+E(xc)   XCENC  =      3116.03980244
  PAW double counting   =     78720.26922993   -77509.15087596
  entropy T*S    EENTRO =        -0.00252338
  eigenvalues    EBANDS =     -2679.70046186
  atomic energy  EATOM  =     99352.61864973
  Solvation  Ediel_sol  =         0.00000000
  ---------------------------------------------------
  free energy    TOTEN  =      7897.46952226 eV

  energy without entropy =     7897.47204564  energy(sigma->0) =     7897.47078395


--------------------------------------------------------------------------------------------------------




--------------------------------------- Iteration      1(   2)  ---------------------------------------


     EDDAV:  cpu time     67.1917: real time     68.1568
       DOS:  cpu time      0.1330: real time      0.1334
    --------------------------------------------
      LOOP:  cpu time     67.3247: real time     68.2902

 eigenvalue-minimisations  : 23048
 total energy-change (2. order) :-0.7972730E+04  (-0.7723895E+04)
 number of electron     824.0000000 magnetization 
 augmentation part      824.0000000 magnetization 

 Free energy of the ion-electron system (eV)
  ---------------------------------------------------
  alpha Z        PSCENC =      7603.51887656
  Ewald energy   TEWEN  =    -84460.49065787
  -Hartree energ DENC   =    -16245.63251733
  -exchange      EXHF   =         0.00000000
  -V(xc)+E(xc)   XCENC  =      3116.03980244
  PAW double counting   =     78720.26922993   -77509.15087596
  entropy T*S    EENTRO =        -0.00493392
  eigenvalues    EBANDS =    -10652.42814510
  atomic energy  EATOM  =     99352.61864973
  Solvation  Ediel_sol  =         0.00000000
  ---------------------------------------------------
  free energy    TOTEN  =       -75.26057152 eV

  energy without entropy =      -75.25563760  energy(sigma->0) =      -75.25810456


--------------------------------------------------------------------------------------------------------




--------------------------------------- Iteration      1(   3)  ---------------------------------------


     EDDAV:  cpu time     67.3842: real time     70.4580
       DOS:  cpu time      0.4398: real time      0.6095
    --------------------------------------------
      LOOP:  cpu time     67.8241: real time     71.0675

 eigenvalue-minimisations  : 33000
 total energy-change (2. order) :-0.6648622E+03  (-0.6232087E+03)
 number of electron     824.0000000 magnetization 
 augmentation part      824.0000000 magnetization 

 Free energy of the ion-electron system (eV)
  ---------------------------------------------------
  alpha Z        PSCENC =      7603.51887656
  Ewald energy   TEWEN  =    -84460.49065787
  -Hartree energ DENC   =    -16245.63251733
  -exchange      EXHF   =         0.00000000
  -V(xc)+E(xc)   XCENC  =      3116.03980244
  PAW double counting   =     78720.26922993   -77509.15087596
  entropy T*S    EENTRO =        -0.00888370
  eigenvalues    EBANDS =    -11317.28641440
  atomic energy  EATOM  =     99352.61864973
  Solvation  Ediel_sol  =         0.00000000
  ---------------------------------------------------
  free energy    TOTEN  =      -740.12279061 eV

  energy without entropy =     -740.11390690  energy(sigma->0) =     -740.11834875


--------------------------------------------------------------------------------------------------------




--------------------------------------- Iteration      1(   4)  ---------------------------------------


     EDDAV:  cpu time     66.2031: real time     69.6785
       DOS:  cpu time      0.4683: real time      0.4830
    --------------------------------------------
      LOOP:  cpu time     66.6714: real time     70.1615

 eigenvalue-minimisations  : 31248
 total energy-change (2. order) :-0.4348660E+02  (-0.4183674E+02)
 number of electron     824.0000000 magnetization 
 augmentation part      824.0000000 magnetization 

 Free energy of the ion-electron system (eV)
  ---------------------------------------------------
  alpha Z        PSCENC =      7603.51887656
  Ewald energy   TEWEN  =    -84460.49065787
  -Hartree energ DENC   =    -16245.63251733
  -exchange      EXHF   =         0.00000000
  -V(xc)+E(xc)   XCENC  =      3116.03980244
  PAW double counting   =     78720.26922993   -77509.15087596
  entropy T*S    EENTRO =        -0.01027285
  eigenvalues    EBANDS =    -11360.77162440
  atomic energy  EATOM  =     99352.61864973
  Solvation  Ediel_sol  =         0.00000000
  ---------------------------------------------------
  free energy    TOTEN  =      -783.60938975 eV

  energy without entropy =     -783.59911691  energy(sigma->0) =     -783.60425333


--------------------------------------------------------------------------------------------------------




--------------------------------------- Iteration      1(   5)  ---------------------------------------


     EDDAV:  cpu time     91.7738: real time     96.6844
       DOS:  cpu time      0.2879: real time      0.2889
    CHARGE:  cpu time      0.8725: real time      0.8754
    MIXING:  cpu time      0.1872: real time      0.1878
    --------------------------------------------
      LOOP:  cpu time     93.1214: real time     98.0364

 eigenvalue-minimisations  : 39888
 total energy-change (2. order) :-0.2853345E+01  (-0.2826599E+01)
 number of electron     823.9999661 magnetization 
 augmentation part      185.0053787 magnetization 

 Broyden mixing:
  rms(total) = 0.11049E+02    rms(broyden)= 0.11047E+02
  rms(prec ) = 0.11427E+02
  weight for this iteration     100.00

 Free energy of the ion-electron system (eV)
  ---------------------------------------------------
  alpha Z        PSCENC =      7603.51887656
  Ewald energy   TEWEN  =    -84460.49065787
  -Hartree energ DENC   =    -16245.63251733
  -exchange      EXHF   =         0.00000000
  -V(xc)+E(xc)   XCENC  =      3116.03980244
  PAW double counting   =     78720.26922993   -77509.15087596
  entropy T*S    EENTRO =        -0.01060344
  eigenvalues    EBANDS =    -11363.62463893
  atomic energy  EATOM  =     99352.61864973
  Solvation  Ediel_sol  =         0.00000000
  ---------------------------------------------------
  free energy    TOTEN  =      -786.46273487 eV

  energy without entropy =     -786.45213143  energy(sigma->0) =     -786.45743315


--------------------------------------------------------------------------------------------------------




--------------------------------------- Iteration      1(   6)  ---------------------------------------


    POTLOK:  cpu time      0.2478: real time      0.2617
    SETDIJ:  cpu time      0.0080: real time      0.0081
     EDDAV:  cpu time     67.4610: real time     69.4738
       DOS:  cpu time      0.5087: real time      0.5237
    CHARGE:  cpu time      0.8556: real time      1.1463
    MIXING:  cpu time      0.1936: real time      0.1944
    --------------------------------------------
      LOOP:  cpu time     69.2747: real time     71.6080

 eigenvalue-minimisations  : 28152
 total energy-change (2. order) : 0.2198575E+02  (-0.1059255E+02)
 number of electron     823.9999661 magnetization 
 augmentation part      192.2729941 magnetization 

 Broyden mixing:
  rms(total) = 0.43598E+01    rms(broyden)= 0.43589E+01
  rms(prec ) = 0.64433E+01
  weight for this iteration     100.00

 eigenvalues of (default mixing * dielectric matrix)
  average eigenvalue GAMMA=   1.4415
  1.4415

 Free energy of the ion-electron system (eV)
  ---------------------------------------------------
  alpha Z        PSCENC =      7603.51887656
  Ewald energy   TEWEN  =    -84460.49065787
  -Hartree energ DENC   =    -15305.55932528
  -exchange      EXHF   =         0.00000000
  -V(xc)+E(xc)   XCENC  =      3071.63782608
  PAW double counting   =     93830.84308937   -92745.37647798
  entropy T*S    EENTRO =        -0.01134181
  eigenvalues    EBANDS =    -12111.65762352
  atomic energy  EATOM  =     99352.61864973
  Solvation  Ediel_sol  =         0.00000000
  ---------------------------------------------------
  free energy    TOTEN  =      -764.47698472 eV

  energy without entropy =     -764.46564291  energy(sigma->0) =     -764.47131382


--------------------------------------------------------------------------------------------------------




--------------------------------------- Iteration      1(   7)  ---------------------------------------


    POTLOK:  cpu time      0.0619: real time      0.0624
    SETDIJ:  cpu time      0.0053: real time      0.0053
     EDDAV:  cpu time     48.5328: real time     50.0451
       DOS:  cpu time      0.1359: real time      0.1364
    CHARGE:  cpu time      0.7764: real time      0.9972
    MIXING:  cpu time      0.0923: real time      0.0926
    --------------------------------------------
      LOOP:  cpu time     49.6047: real time     51.3390

 eigenvalue-minimisations  : 32280
 total energy-change (2. order) :-0.5147761E+02  (-0.2054982E+02)
 number of electron     823.9999634 magnetization 
 augmentation part      191.8462510 magnetization 

 Broyden mixing:
  rms(total) = 0.45229E+01    rms(broyden)= 0.45203E+01
  rms(prec ) = 0.12819E+02
  weight for this iteration     100.00

 eigenvalues of (default mixing * dielectric matrix)
  average eigenvalue GAMMA=   0.9458
  1.5846  0.3070

 Free energy of the ion-electron system (eV)
  ---------------------------------------------------
  alpha Z        PSCENC =      7603.51887656
  Ewald energy   TEWEN  =    -84460.49065787
  -Hartree energ DENC   =    -15212.13969843
  -exchange      EXHF   =         0.00000000
  -V(xc)+E(xc)   XCENC  =      3061.46931325
  PAW double counting   =    101224.75509341  -100171.06265860
  entropy T*S    EENTRO =        -0.01359480
  eigenvalues    EBANDS =    -12214.60991396
  atomic energy  EATOM  =     99352.61864973
  Solvation  Ediel_sol  =         0.00000000
  ---------------------------------------------------
  free energy    TOTEN  =      -815.95459072 eV

  energy without entropy =     -815.94099592  energy(sigma->0) =     -815.94779332


--------------------------------------------------------------------------------------------------------




--------------------------------------- Iteration      1(   8)  ---------------------------------------


    POTLOK:  cpu time      0.2215: real time      0.3034
    SETDIJ:  cpu time      0.0069: real time      0.0069
     EDDAV:  cpu time     63.1315: real time     66.0883
       DOS:  cpu time      0.0692: real time      0.0695
    CHARGE:  cpu time      1.6473: real time      1.7339
    MIXING:  cpu time      0.3130: real time      0.3659
    --------------------------------------------
      LOOP:  cpu time     65.3894: real time     68.5680

 eigenvalue-minimisations  : 33680
 total energy-change (2. order) : 0.6686368E+02  (-0.1805818E+02)
 number of electron     823.9999651 magnetization 
 augmentation part      193.0617091 magnetization 

 Broyden mixing:
  rms(total) = 0.17019E+01    rms(broyden)= 0.16982E+01
  rms(prec ) = 0.27784E+01
  weight for this iteration     100.00

 eigenvalues of (default mixing * dielectric matrix)
  average eigenvalue GAMMA=   0.8549
  1.7245  0.5730  0.2672

 Free energy of the ion-electron system (eV)
  ---------------------------------------------------
  alpha Z        PSCENC =      7603.51887656
  Ewald energy   TEWEN  =    -84460.49065787
  -Hartree energ DENC   =    -14959.00419852
  -exchange      EXHF   =         0.00000000
  -V(xc)+E(xc)   XCENC  =      3051.68560789
  PAW double counting   =    107279.76818353  -106259.91768519
  entropy T*S    EENTRO =        -0.00839734
  eigenvalues    EBANDS =    -12357.26129370
  atomic energy  EATOM  =     99352.61864973
  Solvation  Ediel_sol  =         0.00000000
  ---------------------------------------------------
[...]
  0.008   0.041   0.005  -0.001  -0.006  -0.002   0.006   0.001   3.448   0.012  -0.071   0.018  -0.001  -1.473  -0.001   0.032
 -0.000   0.002   0.004  -0.005  -0.001  -0.010   0.000   0.005   0.012   3.484  -0.001   0.057   0.006  -0.001  -1.490   0.001
  0.001   0.014  -0.001   0.003   0.002   0.002  -0.002  -0.004  -0.071  -0.001   2.785   0.001   0.033   0.031   0.001  -1.274
  0.001  -0.003  -0.001   0.002   0.004   0.008   0.003  -0.009   0.018   0.057   0.001   3.485   0.001  -0.010  -0.027  -0.002
 -0.002  -0.033  -0.002  -0.000  -0.005   0.006   0.001   0.010  -0.001   0.006   0.033   0.001   2.780   0.001  -0.003  -0.014
 -0.006  -0.021  -0.003   0.000   0.004   0.002  -0.004  -0.002  -1.473  -0.001   0.031  -0.010   0.001   0.640  -0.001  -0.014
  0.000  -0.003  -0.003   0.003   0.000   0.006  -0.002  -0.004  -0.001  -1.490   0.001  -0.027  -0.003  -0.001   0.649  -0.000
 -0.001  -0.004   0.001  -0.002  -0.001  -0.001   0.001   0.002   0.032   0.001  -1.274  -0.002  -0.014  -0.014  -0.000   0.590
 -0.001   0.004   0.000  -0.001  -0.002  -0.004   0.000   0.005  -0.010  -0.026  -0.002  -1.485  -0.002   0.005   0.013   0.001
  0.002   0.015   0.002   0.000   0.003  -0.003  -0.000  -0.004   0.001  -0.003  -0.014  -0.002  -1.272  -0.000   0.002   0.006


------------------------ aborting loop because EDIFF is reached ----------------------------------------


    CHARGE:  cpu time      0.4311: real time      0.4810
    FORLOC:  cpu time      0.0044: real time      0.0045
    FORNL :  cpu time     16.4259: real time     16.5984
    STRESS:  cpu time     14.9004: real time     14.9604
    FORCOR:  cpu time      0.0318: real time      0.0319
    FORHAR:  cpu time      0.1069: real time      0.1072
    MIXING:  cpu time      0.0027: real time      0.0028
    OFIELD:  cpu time      0.0001: real time      0.0001

  FORCE on cell =-STRESS in cart. coord.  units (eV):
  Direction    XX          YY          ZZ          XY          YZ          ZX
  --------------------------------------------------------------------------------------
  Alpha Z  7603.51888  7603.51888  7603.51888
  Ewald  -28537.64853-28081.95387-27841.32195    68.51080   -17.06978   -43.54915
  Hartree  4583.82957  5029.15914  5265.03337    65.03579   -13.60661   -40.90648
  E(xc)   -3773.77986 -3773.80576 -3773.86311    -0.13850    -0.01018     0.07273
  Local    7097.69044  6196.43946  5720.76811  -128.69783    30.09625    82.46126
  n-local -1635.06108 -1634.57485 -1635.88703    -1.37379     0.95006    -0.07188
  augment  2288.89917  2289.02910  2289.11234    -0.84085     0.05566     0.28698
  Kinetic 12270.91620 12271.09366 12272.46545    -0.96838    -0.21901     0.88520
  Fock        0.00000     0.00000     0.00000     0.00000     0.00000     0.00000
  -------------------------------------------------------------------------------------
  Total    -101.63522  -101.09424  -100.17394     1.52723     0.19641    -0.82134
  in kB    -142.89504  -142.13444  -140.84053     2.14723     0.27615    -1.15477
  external pressure =     -141.96 kB  Pullay stress =        0.00 kB


 VOLUME and BASIS-vectors are now :
 -----------------------------------------------------------------------------
  energy-cutoff  :      250.00
  volume of cell :     1139.56
      direct lattice vectors                 reciprocal lattice vectors
    13.160000000  0.000000000  0.000000000     0.075987842  0.000000000  0.000000000
     0.000000000 13.160000000  0.000000000     0.000000000  0.075987842  0.000000000
     0.000000000  0.000000000  6.580000000     0.000000000  0.000000000  0.151975684

  length of vectors
    13.160000000 13.160000000  6.580000000     0.075987842  0.075987842  0.151975684


 FORCES acting on ions
    electron-ion (+dipol)            ewald-force                    non-local-force                 convergence-correction
 -----------------------------------------------------------------------------------------------
   0.334E+01 0.757E+02 0.164E+02   -.384E+01 -.753E+02 -.164E+02   0.585E-01 -.241E-01 0.105E+00   0.897E-04 -.281E-04 0.165E-04
   -.947E+02 0.765E+02 -.956E+01   0.948E+02 -.763E+02 0.933E+01   -.293E+00 -.746E-01 0.832E-01   -.118E-03 0.265E-04 -.138E-04
   -.137E+03 -.188E+01 -.591E+02   0.138E+03 0.251E+01 0.585E+02   -.254E+00 -.470E+00 0.112E+00   -.151E-04 -.481E-04 0.225E-04
   0.144E+03 -.841E+02 -.488E+02   -.144E+03 0.842E+02 0.486E+02   0.272E+00 -.194E+00 -.161E+00   0.227E-04 -.166E-04 0.602E-05
   0.802E+01 -.143E+03 0.128E+02   -.831E+01 0.143E+03 -.126E+02   0.581E-01 0.147E+00 0.180E-01   -.265E-04 -.175E-05 0.817E-06
   0.873E+02 0.541E+02 -.912E+00   -.876E+02 -.538E+02 0.864E+00   0.334E+00 -.307E-02 0.611E-01   0.137E-03 0.828E-05 0.251E-04
   -.154E+03 0.494E+02 -.507E+02   0.154E+03 -.498E+02 0.504E+02   0.227E-01 0.414E+00 0.507E-01   -.296E-04 -.647E-04 0.267E-04
   -.626E+02 -.960E+02 0.865E+00   0.625E+02 0.962E+02 -.864E+00   0.122E+00 -.257E+00 0.807E-01   -.664E-04 0.294E-04 0.410E-04
   -.170E+03 -.785E+02 -.365E+02   0.169E+03 0.781E+02 0.362E+02   -.691E-01 0.857E-01 -.663E-01   0.149E-04 0.252E-05 -.158E-04
   -.143E+03 0.317E+01 0.634E+02   0.143E+03 -.276E+01 -.630E+02   -.330E+00 -.881E-01 0.326E-02   -.365E-04 -.688E-04 -.205E-04
   0.189E+03 -.128E+03 0.250E+02   -.190E+03 0.128E+03 -.249E+02   0.380E+00 -.370E+00 0.310E-01   0.352E-04 0.216E-04 0.430E-05
   -.221E+03 0.227E+02 -.302E+02   0.221E+03 -.228E+02 0.302E+02   -.376E+00 0.111E+00 -.121E+00   0.677E-04 0.952E-04 -.199E-04
   0.158E+03 -.144E+03 -.250E+02   -.158E+03 0.144E+03 0.249E+02   -.318E+00 -.394E+00 0.242E-02   0.461E-04 0.191E-04 -.658E-05
   0.415E+02 0.764E+02 0.230E+02   -.416E+02 -.758E+02 -.231E+02   0.633E-01 -.471E+00 0.566E-01   -.133E-03 0.411E-04 -.604E-05
   -.306E+02 0.552E+02 -.432E+02   0.304E+02 -.553E+02 0.432E+02   0.242E+00 0.522E-01 -.696E-02   0.926E-04 -.393E-04 -.159E-04
   -.162E+03 -.109E+03 0.315E+02   0.161E+03 0.108E+03 -.314E+02   0.376E+00 -.889E-01 0.936E-01   -.555E-04 0.895E-04 0.372E-04
   0.208E+03 0.505E+01 0.287E+02   -.208E+03 -.491E+01 -.287E+02   0.564E+00 0.548E-01 0.867E-01   0.105E-03 0.270E-04 -.310E-04
   -.819E+02 0.110E+03 0.102E+02   0.819E+02 -.110E+03 -.101E+02   -.200E+00 0.379E+00 -.861E-02   -.139E-03 -.741E-05 0.194E-04
   0.931E+02 0.995E+02 -.823E+02   -.931E+02 -.996E+02 0.820E+02   -.129E+00 0.187E+00 -.712E-01   -.126E-03 0.116E-04 0.258E-04
   0.179E+03 0.939E+02 0.638E+01   -.180E+03 -.939E+02 -.622E+01   0.372E+00 0.221E+00 -.621E-02   0.796E-04 -.137E-04 -.197E-04
   -.877E+02 -.568E+02 0.801E+01   0.879E+02 0.567E+02 -.781E+01   -.221E+00 0.209E-02 -.864E-01   -.141E-03 0.716E-04 -.377E-04
   0.131E+03 -.131E+03 0.281E+02   -.131E+03 0.131E+03 -.280E+02   -.344E-01 -.186E+00 0.234E-01   0.925E-05 0.418E-05 0.123E-04
   0.169E+03 0.157E+03 0.603E+00   -.169E+03 -.157E+03 -.602E+00   0.913E-01 0.237E+00 0.881E-02   -.786E-04 0.547E-04 0.367E-05
   0.174E+03 0.963E+02 -.636E+01   -.175E+03 -.963E+02 0.622E+01   0.252E+00 0.258E+00 -.197E-01   0.967E-04 -.270E-04 0.171E-04
   -.550E+01 -.697E+02 -.715E+01   0.567E+01 0.697E+02 0.699E+01   0.972E-02 -.779E-01 0.749E-02   0.370E-04 0.599E-04 0.270E-04
   0.741E+02 0.101E+03 0.105E+01   -.742E+02 -.102E+03 -.930E+00   0.794E-01 0.472E+00 -.657E-01   0.153E-03 -.131E-05 -.307E-04
   0.215E+03 0.109E+02 0.191E+02   -.215E+03 -.109E+02 -.192E+02   0.447E+00 0.417E-01 0.983E-01   -.604E-04 -.187E-04 -.264E-06
   -.449E+02 0.346E+02 0.152E+02   0.444E+02 -.349E+02 -.148E+02   0.641E-01 0.298E+00 -.423E-01   -.259E-04 -.680E-04 0.140E-04
   -.155E+03 0.855E+01 0.240E+02   0.154E+03 -.832E+01 -.237E+02   -.746E-01 0.622E-01 0.658E-01   0.467E-04 0.588E-04 0.574E-05
   0.149E+03 -.649E+01 -.228E+02   -.148E+03 0.675E+01 0.225E+02   0.302E+00 0.743E-01 -.140E-01   0.435E-04 -.738E-05 0.336E-04
   -.123E+03 0.155E+01 0.937E+01   0.123E+03 -.167E+01 -.910E+01   -.505E-01 -.131E+00 -.898E-01   0.235E-04 -.148E-04 -.337E-05
   0.257E+02 0.698E+01 0.545E+01   -.255E+02 -.649E+01 -.519E+01   0.377E-01 -.117E+00 0.193E-01   0.833E-04 0.224E-04 -.502E-04
   -.121E+01 -.540E+02 0.575E+01   0.144E+01 0.538E+02 -.549E+01   -.816E-01 -.413E-01 -.481E-01   0.520E-04 0.482E-04 -.267E-04
   -.127E+03 -.676E+01 -.939E+01   0.127E+03 0.638E+01 0.910E+01   0.145E-01 -.690E-01 0.819E-01   0.570E-04 0.455E-05 0.651E-05
   0.129E+03 0.150E+03 -.474E+00   -.129E+03 -.150E+03 0.473E+00   -.199E-01 0.496E+00 -.306E-02   -.178E-04 0.449E-04 0.413E-06
   -.116E+03 0.647E+02 0.164E+02   0.116E+03 -.642E+02 -.160E+02   -.939E-02 0.153E-01 -.536E-01   0.902E-05 -.855E-04 -.262E-05
   0.162E+03 0.578E+01 -.151E+02   -.161E+03 -.574E+01 0.151E+02   0.107E+00 0.557E-01 -.593E-01   -.416E-04 -.305E-04 0.358E-05
   -.889E+00 0.536E+02 -.139E+02   0.457E+00 -.531E+02 0.139E+02   -.111E+00 -.154E-01 -.533E-01   0.647E-04 -.350E-04 -.117E-04
   0.969E+02 -.103E+03 -.811E+01   -.969E+02 0.103E+03 0.790E+01   0.306E+00 -.198E+00 -.956E-02   0.773E-05 0.255E-04 0.283E-04
   0.118E+03 -.730E+02 0.414E+02   -.118E+03 0.731E+02 -.411E+02   0.258E+00 -.235E+00 0.646E-01   0.201E-04 0.841E-05 -.104E-04
   0.813E+02 0.980E+02 -.560E+02   -.811E+02 -.981E+02 0.558E+02   -.603E-01 0.409E+00 -.110E+00   0.259E-04 0.297E-05 -.207E-04
   0.932E+02 -.129E+03 -.222E+02   -.927E+02 0.129E+03 0.220E+02   -.422E+00 -.482E+00 -.447E-02   0.125E-04 0.312E-04 -.102E-04
   -.383E+02 0.350E+01 -.337E+02   0.382E+02 -.385E+01 0.337E+02   0.623E-01 0.161E+00 -.128E-01   0.457E-04 -.391E-04 0.514E-05
   0.811E+02 0.110E+03 0.560E+02   -.809E+02 -.111E+03 -.558E+02   0.246E-01 0.316E+00 0.119E+00   0.374E-04 -.413E-05 0.203E-04
   0.245E+02 0.243E+02 -.542E+01   -.243E+02 -.242E+02 0.519E+01   0.984E-01 -.113E-01 -.397E-01   0.706E-04 0.212E-04 0.511E-04
   -.576E+02 -.137E+02 0.337E+02   0.580E+02 0.138E+02 -.337E+02   -.166E+00 0.328E-01 0.356E-01   0.392E-04 -.371E-04 -.620E-05
   -.561E+02 -.594E+02 -.744E+00   0.564E+02 0.594E+02 0.731E+00   -.186E+00 0.127E-01 -.708E-01   -.267E-04 -.720E-05 -.308E-04
   -.134E+03 -.747E+02 0.310E+02   0.133E+03 0.742E+02 -.306E+02   0.261E+00 -.179E-01 0.125E+00   0.845E-05 0.319E-04 0.119E-04
   0.667E+02 -.231E+02 0.729E+02   -.672E+02 0.230E+02 -.725E+02   0.147E+00 0.434E+00 0.168E+00   -.490E-04 -.639E-04 -.385E-04
   -.419E+02 0.565E+02 0.432E+02   0.421E+02 -.565E+02 -.432E+02   -.243E+00 -.235E-01 -.291E-01   0.102E-03 -.404E-04 0.192E-04
   -.193E+03 -.116E+03 -.315E+02   0.193E+03 0.116E+03 0.314E+02   -.403E+00 -.572E+00 -.582E-01   -.472E-04 0.103E-03 -.391E-04
   -.166E+03 0.457E+02 0.545E+02   0.166E+03 -.459E+02 -.543E+02   -.140E+00 0.118E+00 -.227E-01   -.411E-04 -.646E-04 -.317E-04
   -.157E+03 0.699E+02 -.206E+02   0.157E+03 -.695E+02 0.203E+02   -.390E+00 0.152E+00 -.949E-01   0.265E-04 -.909E-04 0.424E-05
   0.104E+03 0.101E+03 0.824E+02   -.105E+03 -.101E+03 -.820E+02   0.293E+00 0.303E-01 0.911E-01   -.122E-03 0.220E-04 -.356E-04
   0.419E+02 -.317E+02 -.729E+02   -.420E+02 0.320E+02 0.725E+02   -.123E+00 -.119E+00 -.138E+00   -.641E-04 -.638E-04 0.327E-04
   0.120E+03 -.373E+02 0.951E+01   -.120E+03 0.372E+02 -.934E+01   0.122E+00 -.114E+00 0.395E-01   0.631E-05 -.476E-04 0.168E-04
   0.948E+02 -.338E+02 -.947E+01   -.949E+02 0.337E+02 0.934E+01   0.761E-01 -.142E+00 -.580E-01   0.138E-04 -.453E-04 -.166E-04
   0.119E+03 -.174E+03 0.102E+02   -.119E+03 0.174E+03 -.101E+02   0.860E-01 -.478E+00 0.527E-01   0.352E-04 0.165E-04 -.276E-04
   0.399E+02 0.850E+02 -.231E+02   -.400E+02 -.847E+02 0.231E+02   0.418E-01 0.186E+00 0.186E-01   -.146E-03 0.428E-04 0.912E-05
   -.106E+03 -.509E+02 -.793E+01   0.107E+03 0.510E+02 0.781E+01   -.345E+00 -.399E+00 -.503E-01   -.158E-03 0.525E-04 0.368E-04
   -.616E+02 0.501E+02 -.191E+02   0.613E+02 -.500E+02 0.188E+02   -.108E+00 -.700E-01 -.111E+00   -.431E-04 -.988E-04 -.174E-04
   -.247E+03 0.602E+02 0.227E+02   0.247E+03 -.599E+02 -.227E+02   -.388E+00 0.587E-01 -.111E-03   -.714E-04 0.438E-04 0.216E-04
   0.489E+01 -.153E+03 -.137E+02   -.512E+01 0.152E+03 0.136E+02   -.306E-01 -.250E+00 -.464E-01   -.493E-04 -.298E-05 -.435E-05
   -.252E+03 0.653E+02 -.227E+02   0.252E+03 -.653E+02 0.227E+02   -.584E+00 0.559E+00 -.300E-02   -.529E-04 0.241E-04 -.237E-04
 -----------------------------------------------------------------------------------------------
   0.119E+00 0.479E-01 0.315E-01   0.142E-12 -.107E-11 -.334E-12   -.118E+00 -.480E-01 -.315E-01   -.165E-03 -.161E-04 -.187E-04
 
 
 POSITION                                       TOTAL-FORCE (eV/Angst)
 -----------------------------------------------------------------------------------
      4.93500     11.51500      1.64500        -0.437278      0.358512      0.064056
     11.51500      1.64500      1.64500        -0.174261      0.139546     -0.147288
      0.00000      9.87000      3.29000         0.022055      0.153502     -0.460233
      6.58000      9.87000      3.29000         0.216573     -0.122892     -0.319095
      9.87000      6.58000      0.00000        -0.232903     -0.602528      0.249961
      4.93500      1.64500      1.64500        -0.037436      0.205240      0.013079
      0.00000      0.00000      3.29000        -0.293866      0.032487     -0.278374
     11.51500      8.22500      4.93500        -0.001884     -0.049588      0.082240
      1.64500      8.22500      1.64500        -0.588459     -0.279595     -0.442597
      0.00000      9.87000      0.00000         0.075486      0.322477      0.362930
      6.58000      6.58000      3.29000         0.157657     -0.304593      0.153271
      1.64500      4.93500      1.64500        -0.510412      0.090492     -0.133615
      6.58000      6.58000      0.00000         0.182256     -0.244712     -0.149806
      9.87000      3.29000      0.00000        -0.011819      0.195245      0.011498
      3.29000      0.00000      3.29000         0.098067     -0.059797     -0.012777
      0.00000      6.58000      0.00000        -0.188820     -0.630996      0.132394
      4.93500      4.93500      4.93500         0.472826      0.191152      0.107393
     11.51500      1.64500      4.93500        -0.204721      0.176522      0.150870
      9.87000      0.00000      3.29000        -0.112071      0.072100     -0.335324
      6.58000      3.29000      3.29000         0.349733      0.233673      0.152209
     11.51500      4.93500      1.64500        -0.024753     -0.131486      0.111552
      8.22500      8.22500      1.64500         0.323149     -0.254304      0.138787
      8.22500      1.64500      1.64500         0.480493      0.360372      0.009568
      6.58000      3.29000      0.00000         0.176609      0.280660     -0.155481
      3.29000      6.58000      0.00000         0.178397     -0.069929     -0.150965
      4.93500      1.64500      4.93500         0.036682     -0.059859      0.050846
      8.22500     11.51500      1.64500         0.867625      0.027968     -0.012298
     11.51500     11.51500      4.93500        -0.366465      0.052550      0.356050
      1.64500      4.93500      4.93500        -0.853536      0.285377      0.341112
      4.93500      4.93500      1.64500         1.081013      0.331124     -0.263213
      1.64500      1.64500      4.93500        -0.223550     -0.250603      0.176565
      3.29000      3.29000      3.29000         0.278262      0.372372      0.279341
      3.29000      6.58000      3.29000         0.153182     -0.238821      0.208020
      1.64500      1.64500      1.64500        -0.346809     -0.446911     -0.203157
      8.22500      1.64500      4.93500         0.499652      0.706385     -0.003456
      1.64500     11.51500      4.93500        -0.113033      0.528698      0.371109
      8.22500     11.51500      4.93500         1.137378      0.097602     -0.066430
      4.93500     11.51500      4.93500        -0.543163      0.450183     -0.017047
      4.93500      8.22500      1.64500         0.278500     -0.985041     -0.222894
      6.58000      9.87000      0.00000         0.182396     -0.165594      0.319008
      6.58000      0.00000      3.29000         0.149982      0.360568     -0.339681
      8.22500      8.22500      4.93500         0.093660     -0.444266     -0.227859
      3.29000      9.87000      3.29000         0.010311     -0.195652     -0.059516
      6.58000      0.00000      0.00000         0.246983      0.238208      0.311859
      3.29000      3.29000      0.00000         0.290806      0.099131     -0.273109
      3.29000      9.87000      0.00000         0.149106      0.127051      0.063321
     11.51500      8.22500      1.64500         0.071436     -0.004218     -0.083887
      1.64500      8.22500      4.93500        -0.438582     -0.559554      0.536091
      9.87000      9.87000      0.00000        -0.325339      0.345101      0.588103
      3.29000      0.00000      0.00000         0.028801     -0.056498     -0.004510
      0.00000      6.58000      3.29000        -0.176760     -0.755713     -0.189764
      0.00000      0.00000      0.00000        -0.256011     -0.052287      0.262541
      1.64500     11.51500      1.64500        -0.215676      0.507255     -0.378544
      9.87000      0.00000      0.00000        -0.010326     -0.072170      0.452254
      9.87000      9.87000      3.29000        -0.231906      0.115680     -0.565943
      8.22500      4.93500      1.64500        -0.102824     -0.193344      0.205523
      8.22500      4.93500      4.93500        -0.010959     -0.228014     -0.187162
      4.93500      8.22500      4.93500         0.208502     -0.455949      0.165875
      9.87000      3.29000      3.29000        -0.052256      0.487540     -0.017645
     11.51500      4.93500      4.93500         0.212054     -0.247620     -0.172841
     11.51500     11.51500      1.64500        -0.416128     -0.001152     -0.375354
      0.00000      3.29000      0.00000        -0.393859      0.405370      0.002366
      9.87000      6.58000      3.29000        -0.260748     -0.695792     -0.181240
      0.00000      3.29000      3.29000        -0.553022      0.509337      0.001310
 -----------------------------------------------------------------------------------
    total drift:                                0.000011     -0.000134     -0.000008


--------------------------------------------------------------------------------------------------------



  FREE ENERGIE OF THE ION-ELECTRON SYSTEM (eV)
  ---------------------------------------------------
  free  energy   TOTEN  =      -745.99575926 eV

  energy  without entropy=     -745.98709116  energy(sigma->0) =     -745.99142521
 


--------------------------------------------------------------------------------------------------------


    POTLOK:  cpu time      0.0247: real time      0.0248


--------------------------------------------------------------------------------------------------------


     LOOP+:  cpu time   1556.7251: real time   1614.2510
    4ORBIT:  cpu time      0.0000: real time      0.0000

 total amount of memory used by VASP MPI-rank0    90637. kBytes
=======================================================================

   base      :      30000. kBytes
   nonl-proj :      12216. kBytes
   fftplans  :       1504. kBytes
   grid      :       2835. kBytes
   one-center:         93. kBytes
   wavefun   :      43989. kBytes
 
  
  
 General timing and accounting informations for this job:
 ========================================================
  
                  Total CPU time used (sec):     1658.340
                            User time (sec):     1633.671
                          System time (sec):       24.669
                         Elapsed time (sec):     1726.643
  
                   Maximum memory used (kb):      152968.
                   Average memory used (kb):          N/A
  
                          Minor page faults:        64190
                          Major page faults:            0
                 Voluntary context switches:          252
