 vasp.6.3.1 04May22 (build Jul 26 2022 04:02:40) complex                        
  
 executed on             LinuxIFC date 2023.11.30  02:15:22
 running on   48 total cores
 distrk:  each k-point on   48 cores,    1 groups
 distr:  one band on NCORE=  12 cores,    4 groups


--------------------------------------------------------------------------------------------------------


 INCAR:
   ISTART = 0
   NWRITE = 2
   PREC = Accurate
   ENCUT = 250
   GGA = PE
   NSW = 0
   ISIF = 2
   ISYM = 2
   NBLOCK = 1
   KBLOCK = 1
   IBRION = -1
   NELM = 80
   EDIFF = 1E-08
   EDIFFG = -0.01
   ALGO = Normal
   LDIAG = .TRUE.
   LREAL = .FALSE.
   ISMEAR = 0
   SIGMA = 0.02
   ICHARG = 2
   LPLANE = .TRUE.
   NPAR = 4
   LSCALU = .FALSE.
   NSIM = 4
   LWAVE = .FALSE.
   LCHARG = .FALSE.
   ICORELEVEL = 1

 POTCAR:    PAW_PBE Nb_sv 25May2007               
 POTCAR:    PAW_PBE Mo_sv 02Feb2006               
 POTCAR:    PAW_PBE Ta_pv 07Sep2000               
 POTCAR:    PAW_PBE W_sv 04Sep2015                
 POTCAR:    PAW_PBE Nb_sv 25May2007               
   SHA256 =  0e8fc07c9fcd1164cf2ade22d0399fd28f85e91cd773dfa6cf24839a48c95e24 Nb_sv/POTCAR          
   COPYR  = (c) Copyright 25May2007 Georg Kresse                                                    
   COPYR  = This file is part of the software VASP. Any use, copying, and all other rights are regul
   COPYR  = If you do not have a valid VASP license, you may not use, copy or distribute this file. 
   VRHFIN =Nb: 4p5s4d                                                                               
   LEXCH  = PE                                                                                      
   EATOM  =  1555.1913 eV,  114.3033 Ry                                                             
                                                                                                    
   TITEL  = PAW_PBE Nb_sv 25May2007                                                                 
   LULTRA =        F    use ultrasoft PP ?                                                          
   IUNSCR =        1    unscreen: 0-lin 1-nonlin 2-no                                               
   RPACOR =    1.800    partial core radius                                                         
   POMASS =   92.910; ZVAL   =   13.000    mass and valenz                                          
   RCORE  =    2.400    outmost cutoff radius                                                       
   RWIGS  =    2.400; RWIGS  =    1.270    wigner-seitz radius (au A)                               
   ENMAX  =  293.235; ENMIN  =  219.927 eV                                                          
   ICORE  =        3    local potential                                                             
   LCOR   =        T    correct aug charges                                                         
   LPAW   =        T    paw PP                                                                      
   EAUG   =  455.659                                                                                
   DEXC   =    0.000                                                                                
   RMAX   =    2.456    core radius for proj-oper                                                   
   RAUG   =    1.300    factor for augmentation sphere                                              
   RDEP   =    2.451    radius for radial grids                                                     
   RDEPT  =    1.956    core radius for aug-charge                                                  
                                                                                                    
   Atomic configuration                                                                             
   11 entries                                                                                       
     n  l   j            E        occ.                                                              
     1  0  0.50    -18805.2457   2.0000                                                             
     2  0  0.50     -2630.2869   2.0000                                                             
     2  1  1.50     -2348.4046   6.0000                                                             
     3  0  0.50      -438.8757   2.0000                                                             
     3  1  1.50      -346.7588   6.0000                                                             
     3  2  2.50      -196.2560  10.0000                                                             
     4  0  0.50       -58.3859   2.0000                                                             
     5  0  0.50        -3.9816   1.0000                                                             
     4  1  1.50       -34.5141   6.0000                                                             
     4  2  2.50        -3.0408   4.0000                                                             
     4  3  2.50        -1.3606   0.0000                                                             
   Description                                                                                      
     l       E           TYP  RCUT    TYP  RCUT                                                     
     0    -58.3859094     23  2.200                                                                 
     0     -3.9816262     23  2.200                                                                 
     1    -34.5140738     23  2.200                                                                 
     1     13.6058260     23  2.200                                                                 
     2     -3.0408010     23  2.200                                                                 
     2     -0.1283038     23  2.200                                                                 
     3     -1.3605826     23  2.400                                                                 
  local pseudopotential read in
  partial core-charges read in
  partial kinetic energy density read in
  atomic valenz-charges read in
  non local Contribution for L=           0  read in
    real space projection operators read in
  non local Contribution for L=           0  read in
    real space projection operators read in
  non local Contribution for L=           1  read in
    real space projection operators read in
  non local Contribution for L=           1  read in
    real space projection operators read in
  non local Contribution for L=           2  read in
    real space projection operators read in
  non local Contribution for L=           2  read in
    real space projection operators read in
    PAW grid and wavefunctions read in
 
   number of l-projection  operators is LMAX  =           6
   number of lm-projection operators is LMMAX =          18
 
 POTCAR:    PAW_PBE Mo_sv 02Feb2006               
   SHA256 =  2731df97e41766cc617548c5a8267718fdef1f509ac6bafa01e745abea2bdfaa Mo_sv/POTCAR          
   COPYR  = (c) Copyright 02Feb2006 Georg Kresse                                                    
   COPYR  = This file is part of the software VASP. Any use, copying, and all other rights are regul
   COPYR  = If you do not have a valid VASP license, you may not use, copy or distribute this file. 
   VRHFIN =Mo: 4p5s4d                                                                               
   LEXCH  = PE                                                                                      
   EATOM  =  1862.2866 eV,  136.8742 Ry                                                             
                                                                                                    
   TITEL  = PAW_PBE Mo_sv 02Feb2006                                                                 
   LULTRA =        F    use ultrasoft PP ?                                                          
   IUNSCR =        1    unscreen: 0-lin 1-nonlin 2-no                                               
   RPACOR =    2.200    partial core radius                                                         
   POMASS =   95.940; ZVAL   =   14.000    mass and valenz                                          
   RCORE  =    2.500    outmost cutoff radius                                                       
   RWIGS  =    2.750; RWIGS  =    1.455    wigner-seitz radius (au A)                               
   ENMAX  =  242.676; ENMIN  =  182.007 eV                                                          
   ICORE  =        3    local potential                                                             
   LCOR   =        T    correct aug charges                                                         
   LPAW   =        T    paw PP                                                                      
   EAUG   =  446.014                                                                                
   DEXC   =    0.000                                                                                
   RMAX   =    2.563    core radius for proj-oper                                                   
   RAUG   =    1.300    factor for augmentation sphere                                              
   RDEP   =    2.641    radius for radial grids                                                     
   RDEPT  =    2.031    core radius for aug-charge                                                  
                                                                                                    
   Atomic configuration                                                                             
   11 entries                                                                                       
     n  l   j            E        occ.                                                              
     1  0  0.50    -19819.0341   2.0000                                                             
     2  0  0.50     -2799.0127   2.0000                                                             
     2  1  1.50     -2502.0276   6.0000                                                             
     3  0  0.50      -476.4449   2.0000                                                             
     3  1  1.50      -379.1496   6.0000                                                             
     3  2  2.50      -220.9367  10.0000                                                             
     4  0  0.50       -64.3378   2.0000                                                             
     5  0  0.50        -4.0862   1.0000                                                             
     4  1  1.50       -38.4773   6.0000                                                             
     4  2  2.50        -3.7535   5.0000                                                             
     4  3  2.50        -1.3606   0.0000                                                             
   Description                                                                                      
     l       E           TYP  RCUT    TYP  RCUT                                                     
     0    -64.3377829     23  2.100                                                                 
     0     -4.0861640     23  2.400                                                                 
     1    -38.4772993     23  2.100                                                                 
     1     13.6058260     23  2.100                                                                 
     2     -3.7534941     23  2.400                                                                 
     2     -5.1140767     23  2.400                                                                 
     3     -4.0817478     23  2.500                                                                 
  local pseudopotential read in
  partial core-charges read in
  partial kinetic energy density read in
  atomic valenz-charges read in
  non local Contribution for L=           0  read in
    real space projection operators read in
  non local Contribution for L=           0  read in
    real space projection operators read in
  non local Contribution for L=           1  read in
    real space projection operators read in
  non local Contribution for L=           1  read in
    real space projection operators read in
  non local Contribution for L=           2  read in
    real space projection operators read in
  non local Contribution for L=           2  read in
    real space projection operators read in
    PAW grid and wavefunctions read in
 
   number of l-projection  operators is LMAX  =           6
   number of lm-projection operators is LMMAX =          18
 
 POTCAR:    PAW_PBE Ta_pv 07Sep2000               
   SHA256 =  00d0a14a36c127416459414afb8617d9754996fffa60a2465888e660b20a452f Ta_pv/POTCAR          
   COPYR  = (c) Copyright 07Sep2000 Georg Kresse                                                    
   COPYR  = This file is part of the software VASP. Any use, copying, and all other rights are regul
   COPYR  = If you do not have a valid VASP license, you may not use, copy or distribute this file. 
   VRHFIN =Ta:  5p6s5d                                                                              
   LEXCH  = PE                                                                                      
   EATOM  =  1047.1984 eV,   76.9669 Ry                                                             
                                                                                                    
   TITEL  = PAW_PBE Ta_pv 07Sep2000                                                                 
   LULTRA =        F    use ultrasoft PP ?                                                          
   IUNSCR =        1    unscreen: 0-lin 1-nonlin 2-no                                               
   RPACOR =    2.330    partial core radius                                                         
   POMASS =  180.948; ZVAL   =   11.000    mass and valenz                                          
   RCORE  =    2.500    outmost cutoff radius                                                       
   RWIGS  =    2.840; RWIGS  =    1.503    wigner-seitz radius (au A)                               
   ENMAX  =  223.667; ENMIN  =  167.750 eV                                                          
   RCLOC  =    2.205    cutoff for local pot                                                        
   LCOR   =        T    correct aug charges                                                         
   LPAW   =        T    paw PP                                                                      
   EAUG   =  377.421                                                                                
   DEXC   =    0.000                                                                                
   RMAX   =    2.551    core radius for proj-oper                                                   
   RAUG   =    1.300    factor for augmentation sphere                                              
   RDEP   =    2.526    radius for radial grids                                                     
   RDEPT  =    2.132    core radius for aug-charge                                                  
                                                                                                    
   Atomic configuration                                                                             
   15 entries                                                                                       
     n  l   j            E        occ.                                                              
     1  0  0.50    -67341.2801   2.0000                                                             
     2  0  0.50    -11566.9369   2.0000                                                             
     2  1  1.50    -10134.1175   6.0000                                                             
     3  0  0.50     -2648.5614   2.0000                                                             
     3  1  1.50     -2222.6006   6.0000                                                             
     3  2  2.50     -1726.3114  10.0000                                                             
     4  0  0.50      -538.6957   2.0000                                                             
     4  1  1.50      -399.0125   6.0000                                                             
     4  2  2.50      -220.3955  10.0000                                                             
     4  3  3.50       -23.0371  14.0000                                                             
     5  0  0.50       -71.2900   2.0000                                                             
     5  1  1.50       -37.8224   6.0000                                                             
     5  2  2.50        -2.6455   4.0000                                                             
     6  0  0.50        -4.9623   1.0000                                                             
     5  3  2.50        -1.3606   0.0000                                                             
   Description                                                                                      
     l       E           TYP  RCUT    TYP  RCUT                                                     
     1    -37.8224449     23  2.500                                                                 
     1      1.3605826     23  2.500                                                                 
     2     -2.6454718     23  2.500                                                                 
     2     -0.6258570     23  2.500                                                                 
     0     -4.9622674     23  2.500                                                                 
     0      4.7531427     23  2.500                                                                 
  local pseudopotential read in
  partial core-charges read in
  partial kinetic energy density read in
  atomic valenz-charges read in
  non local Contribution for L=           1  read in
    real space projection operators read in
  non local Contribution for L=           1  read in
    real space projection operators read in
  non local Contribution for L=           2  read in
    real space projection operators read in
  non local Contribution for L=           2  read in
    real space projection operators read in
  non local Contribution for L=           0  read in
    real space projection operators read in
  non local Contribution for L=           0  read in
    real space projection operators read in
    PAW grid and wavefunctions read in
 
   number of l-projection  operators is LMAX  =           6
   number of lm-projection operators is LMMAX =          18
 
 POTCAR:    PAW_PBE W_sv 04Sep2015                
   SHA256 =  931c2d770f65867ef30f3db3421922900fc0890ebac5c3e12f63b6a2064023d7 W_sv/POTCAR           
   COPYR  = (c) Copyright 04Sep2015 Georg Kresse                                                    
   COPYR  = This file is part of the software VASP. Any use, copying, and all other rights are regul
   COPYR  = If you do not have a valid VASP license, you may not use, copy or distribute this file. 
   VRHFIN =W : 5p6s5d                                                                               
   LEXCH  = PE                                                                                      
   EATOM  =  1865.5791 eV,  137.1162 Ry                                                             
                                                                                                    
   TITEL  = PAW_PBE W_sv 04Sep2015                                                                  
   LULTRA =        F    use ultrasoft PP ?                                                          
   IUNSCR =        1    unscreen: 0-lin 1-nonlin 2-no                                               
   RPACOR =    2.330    partial core radius                                                         
   POMASS =  183.850; ZVAL   =   14.000    mass and valenz                                          
   RCORE  =    2.500    outmost cutoff radius                                                       
   RWIGS  =    2.750; RWIGS  =    1.455    wigner-seitz radius (au A)                               
   ENMAX  =  223.057; ENMIN  =  167.293 eV                                                          
   ICORE  =        3    local potential                                                             
   LCOR   =        T    correct aug charges                                                         
   LPAW   =        T    paw PP                                                                      
   EAUG   =  373.438                                                                                
   DEXC   =    0.000                                                                                
   RMAX   =    2.565    core radius for proj-oper                                                   
   RAUG   =    1.300    factor for augmentation sphere                                              
   RDEP   =    2.539    radius for radial grids                                                     
   RDEPT  =    2.126    core radius for aug-charge                                                  
                                                                                                    
   Atomic configuration                                                                             
   15 entries                                                                                       
     n  l   j            E        occ.                                                              
     1  0  0.50    -69465.5834   2.0000                                                             
     2  0  0.50    -11986.2640   2.0000                                                             
     2  1  1.50    -10479.8613   6.0000                                                             
     3  0  0.50     -2759.0756   2.0000                                                             
     3  1  1.50     -2313.1855   6.0000                                                             
     3  2  2.50     -1801.1183  10.0000                                                             
     4  0  0.50      -567.6789   2.0000                                                             
     4  1  1.50      -421.4692   6.0000                                                             
     4  2  2.50      -236.3471  10.0000                                                             
     4  3  3.50       -31.2665  14.0000                                                             
     5  0  0.50       -77.1084   2.0000                                                             
     6  0  0.50        -5.1438   1.0000                                                             
     5  1  1.50       -41.3856   6.0000                                                             
     5  2  2.50        -3.3185   5.0000                                                             
     5  3  2.50        -1.3606   0.0000                                                             
   Description                                                                                      
     l       E           TYP  RCUT    TYP  RCUT                                                     
     0    -77.1084470     23  2.100                                                                 
     0     -5.1437956     23  2.300                                                                 
     1    -41.3855615     23  2.500                                                                 
     1     -2.7211652     23  2.500                                                                 
     2     -3.3185025     23  2.500                                                                 
     2     -1.5965151     23  2.500                                                                 
     3     -1.3605826     23  2.500                                                                 
  local pseudopotential read in
  partial core-charges read in
  partial kinetic energy density read in
  kinetic energy density of atom read in
  atomic valenz-charges read in
  non local Contribution for L=           0  read in
    real space projection operators read in
  non local Contribution for L=           0  read in
    real space projection operators read in
  non local Contribution for L=           1  read in
    real space projection operators read in
  non local Contribution for L=           1  read in
    real space projection operators read in
  non local Contribution for L=           2  read in
    real space projection operators read in
  non local Contribution for L=           2  read in
    real space projection operators read in
    PAW grid and wavefunctions read in
 
   number of l-projection  operators is LMAX  =           6
   number of lm-projection operators is LMMAX =          18
 
  PAW_PBE Nb_sv 25May2007               :
 energy of atom  1       EATOM=-1555.1913
 kinetic energy error for atom=    0.2155 (will be added to EATOM!!)
  PAW_PBE Mo_sv 02Feb2006               :
 energy of atom  2       EATOM=-1862.2866
 kinetic energy error for atom=    0.1102 (will be added to EATOM!!)
  PAW_PBE Ta_pv 07Sep2000               :
 energy of atom  3       EATOM=-1047.1984
 kinetic energy error for atom=    0.0394 (will be added to EATOM!!)
  PAW_PBE W_sv 04Sep2015                :
 energy of atom  4       EATOM=-1865.5791
 kinetic energy error for atom=    0.0589 (will be added to EATOM!!)
 
 
 POSCAR: Nb-Mo-Ta-W alloy
  positions in direct lattice
  No initial velocities read in
 exchange correlation table for  LEXCH =        8
   RHO(1)=    0.500       N(1)  =     2000
   RHO(2)=  100.500       N(2)  =     4000
 


--------------------------------------------------------------------------------------------------------


 ion  position               nearest neighbor table
   1  0.750  0.250  0.750-   2 2.85   8 2.85   9 2.85  10 2.85  12 2.85  14 2.85  15 2.85  16 2.85
                             7 3.29   7 3.29
   2  0.500  0.000  0.000-   1 2.85   3 2.85   4 2.85   5 2.85   6 2.85   7 2.85  11 2.85  13 2.85
                            10 3.29   8 3.29   9 3.29  10 3.29   8 3.29   9 3.29
   3  0.250  0.750  0.250-   2 2.85   8 2.85   9 2.85  10 2.85  12 2.85  14 2.85  15 2.85  16 2.85
                             6 3.29  11 3.29  11 3.29   6 3.29
   4  0.250  0.250  0.250-   2 2.85   8 2.85   9 2.85  10 2.85  12 2.85  14 2.85  15 2.85  16 2.85
                             7 3.29   7 3.29
   5  0.750  0.750  0.750-   2 2.85   8 2.85   9 2.85  10 2.85  12 2.85  14 2.85  15 2.85  16 2.85
                             6 3.29  11 3.29   6 3.29  11 3.29
   6  0.750  0.750  0.250-   2 2.85   8 2.85   9 2.85  10 2.85  12 2.85  14 2.85  15 2.85  16 2.85
                             5 3.29   7 3.29   3 3.29   5 3.29   7 3.29   3 3.29
   7  0.750  0.250  0.250-   2 2.85   8 2.85   9 2.85  10 2.85  12 2.85  14 2.85  15 2.85  16 2.85
                             4 3.29   6 3.29   1 3.29   1 3.29   6 3.29   4 3.29
   8  0.500  0.500  0.000-   1 2.85   3 2.85   4 2.85   5 2.85   6 2.85   7 2.85  11 2.85  13 2.85
                             2 3.29  14 3.29  15 3.29  14 3.29   2 3.29  15 3.29
   9  0.000  0.000  0.000-   1 2.85   3 2.85   4 2.85   5 2.85   6 2.85   7 2.85  11 2.85  13 2.85
                             2 3.29  15 3.29  16 3.29  16 3.29  15 3.29   2 3.29
  10  0.500  0.000  0.500-   1 2.85   3 2.85   4 2.85   5 2.85   6 2.85   7 2.85  11 2.85  13 2.85
                             2 3.29  14 3.29  16 3.29   2 3.29  14 3.29  16 3.29
  11  0.250  0.750  0.750-   2 2.85   8 2.85   9 2.85  10 2.85  12 2.85  14 2.85  15 2.85  16 2.85
                             3 3.29   5 3.29  13 3.29   3 3.29  13 3.29   5 3.29
  12  0.000  0.500  0.500-   1 2.85   3 2.85   4 2.85   5 2.85   6 2.85   7 2.85  11 2.85  13 2.85
                            14 3.29  15 3.29  16 3.29  15 3.29  16 3.29  14 3.29
  13  0.250  0.250  0.750-   2 2.85   8 2.85   9 2.85  10 2.85  12 2.85  14 2.85  15 2.85  16 2.85
                            11 3.29  11 3.29
  14  0.500  0.500  0.500-   1 2.85   3 2.85   4 2.85   5 2.85   6 2.85   7 2.85  11 2.85  13 2.85
                             8 3.29  12 3.29  10 3.29   8 3.29  10 3.29  12 3.29
  15  0.000  0.500  0.000-   1 2.85   3 2.85   4 2.85   5 2.85   6 2.85   7 2.85  11 2.85  13 2.85
                             8 3.29  12 3.29   9 3.29  12 3.29   9 3.29   8 3.29
  16  0.000  0.000  0.500-   1 2.85   3 2.85   4 2.85   5 2.85   6 2.85   7 2.85  11 2.85  13 2.85
                             9 3.29  12 3.29  10 3.29   9 3.29  12 3.29  10 3.29
 
  LATTYP: Found a simple cubic cell.
 ALAT       =     6.5800000000
  
  Lattice vectors:
  
 A1 = (   6.5800000000,   0.0000000000,   0.0000000000)
 A2 = (   0.0000000000,   6.5800000000,   0.0000000000)
 A3 = (   0.0000000000,   0.0000000000,   6.5800000000)


Analysis of symmetry for initial positions (statically):
=====================================================================
 Subroutine PRICEL returns:
 Original cell was already a primitive cell.
 

 Routine SETGRP: Setting up the symmetry group for a 
 simple cubic supercell.


 Subroutine GETGRP returns: Found  1 space group operations
 (whereof  1 operations were pure point group operations)
 out of a pool of 48 trial point group operations.


The static configuration has the point symmetry C_1 .


Analysis of symmetry for dynamics (positions and initial velocities):
=====================================================================
 Subroutine PRICEL returns:
 Original cell was already a primitive cell.
 

 Routine SETGRP: Setting up the symmetry group for a 
 simple cubic supercell.


 Subroutine GETGRP returns: Found  1 space group operations
 (whereof  1 operations were pure point group operations)
 out of a pool of 48 trial point group operations.


The dynamic configuration has the point symmetry C_1 .


 Subroutine INISYM returns: Found  1 space group operations
 (whereof  1 operations are pure point group operations),
 and found     1 'primitive' translations


----------------------------------------------------------------------------------------

                                     Primitive cell                                     

  volume of cell :     284.8903

  direct lattice vectors                    reciprocal lattice vectors
     6.580000000  0.000000000  0.000000000     0.151975684  0.000000000  0.000000000
     0.000000000  6.580000000  0.000000000     0.000000000  0.151975684  0.000000000
     0.000000000  0.000000000  6.580000000     0.000000000  0.000000000  0.151975684

  length of vectors
     6.580000000  6.580000000  6.580000000     0.151975684  0.151975684  0.151975684

  position of ions in fractional coordinates (direct lattice)
     0.750000000  0.250000000  0.750000000
     0.500000000  0.000000000  0.000000000
     0.250000000  0.750000000  0.250000000
     0.250000000  0.250000000  0.250000000
     0.750000000  0.750000000  0.750000000
     0.750000000  0.750000000  0.250000000
     0.750000000  0.250000000  0.250000000
     0.500000000  0.500000000  0.000000000
     0.000000000  0.000000000  0.000000000
     0.500000000  0.000000000  0.500000000
     0.250000000  0.750000000  0.750000000
     0.000000000  0.500000000  0.500000000
     0.250000000  0.250000000  0.750000000
     0.500000000  0.500000000  0.500000000
     0.000000000  0.500000000  0.000000000
     0.000000000  0.000000000  0.500000000

  ion indices of the primitive-cell ions
   primitive index   ion index
                 1           1
                 2           2
                 3           3
                 4           4
                 5           5
                 6           6
                 7           7
                 8           8
                 9           9
                10          10
                11          11
                12          12
                13          13
                14          14
                15          15
                16          16

----------------------------------------------------------------------------------------

 
 
 KPOINTS: K-Spacing Value to Generate K-Mesh: 0.03

Automatic generation of k-mesh.
 Grid dimensions read from file:
 generate k-points for:    5    5    5

 Generating k-lattice:

  Cartesian coordinates                     Fractional coordinates (reciprocal lattice)
     0.030395137  0.000000000  0.000000000     0.200000000  0.000000000  0.000000000
     0.000000000  0.030395137  0.000000000     0.000000000  0.200000000  0.000000000
     0.000000000  0.000000000  0.030395137     0.000000000  0.000000000  0.200000000

  Length of vectors
     0.030395137  0.030395137  0.030395137

  Shift w.r.t. Gamma in fractional coordinates (k-lattice)
     0.000000000  0.000000000  0.000000000

 
 Subroutine IBZKPT returns following result:
 ===========================================
 
 Found     63 irreducible k-points:
 
 Following reciprocal coordinates:
            Coordinates               Weight
  0.000000  0.000000  0.000000      1.000000
  0.200000  0.000000  0.000000      2.000000
  0.000000  0.200000  0.000000      2.000000
  0.000000  0.000000  0.200000      2.000000
  0.400000  0.000000  0.000000      2.000000
  0.000000  0.400000  0.000000      2.000000
  0.000000  0.000000  0.400000      2.000000
  0.200000  0.200000  0.000000      2.000000
  0.000000  0.200000  0.200000      2.000000
  0.200000  0.000000  0.200000      2.000000
 -0.200000  0.200000  0.000000      2.000000
 -0.200000  0.000000  0.200000      2.000000
  0.000000 -0.200000  0.200000      2.000000
  0.400000  0.200000  0.000000      2.000000
  0.000000  0.400000  0.200000      2.000000
  0.200000  0.000000  0.400000      2.000000
 -0.200000  0.400000  0.000000      2.000000
 -0.400000  0.000000  0.200000      2.000000
  0.000000  0.200000  0.400000      2.000000
  0.000000 -0.400000  0.200000      2.000000
 -0.200000  0.000000  0.400000      2.000000
  0.400000  0.000000  0.200000      2.000000
  0.000000 -0.200000  0.400000      2.000000
  0.400000 -0.200000  0.000000      2.000000
  0.200000  0.400000  0.000000      2.000000
  0.400000  0.400000  0.000000      2.000000
  0.000000  0.400000  0.400000      2.000000
  0.400000  0.000000  0.400000      2.000000
 -0.400000  0.400000  0.000000      2.000000
 -0.400000  0.000000  0.400000      2.000000
  0.000000 -0.400000  0.400000      2.000000
  0.200000  0.200000  0.200000      2.000000
 -0.200000  0.200000  0.200000      2.000000
 -0.200000 -0.200000  0.200000      2.000000
  0.200000 -0.200000  0.200000      2.000000
  0.400000  0.200000  0.200000      2.000000
  0.200000  0.400000  0.200000      2.000000
  0.200000  0.200000  0.400000      2.000000
 -0.200000  0.400000  0.200000      2.000000
 -0.400000  0.200000  0.200000      2.000000
 -0.200000  0.200000  0.400000      2.000000
 -0.400000 -0.200000  0.200000      2.000000
 -0.200000 -0.400000  0.200000      2.000000
 -0.200000 -0.200000  0.400000      2.000000
  0.200000 -0.400000  0.200000      2.000000
  0.400000 -0.200000  0.200000      2.000000
  0.200000 -0.200000  0.400000      2.000000
  0.400000  0.400000  0.200000      2.000000
  0.200000  0.400000  0.400000      2.000000
  0.400000  0.200000  0.400000      2.000000
 -0.400000  0.400000  0.200000      2.000000
 -0.400000  0.200000  0.400000      2.000000
 -0.200000  0.400000  0.400000      2.000000
 -0.400000 -0.400000  0.200000      2.000000
 -0.200000 -0.400000  0.400000      2.000000
 -0.400000 -0.200000  0.400000      2.000000
  0.400000 -0.400000  0.200000      2.000000
  0.400000 -0.200000  0.400000      2.000000
  0.200000 -0.400000  0.400000      2.000000
  0.400000  0.400000  0.400000      2.000000
 -0.400000  0.400000  0.400000      2.000000
 -0.400000 -0.400000  0.400000      2.000000
  0.400000 -0.400000  0.400000      2.000000
 
 Following cartesian coordinates:
            Coordinates               Weight
  0.000000  0.000000  0.000000      1.000000
  0.030395  0.000000  0.000000      2.000000
  0.000000  0.030395  0.000000      2.000000
  0.000000  0.000000  0.030395      2.000000
  0.060790  0.000000  0.000000      2.000000
  0.000000  0.060790  0.000000      2.000000
  0.000000  0.000000  0.060790      2.000000
  0.030395  0.030395  0.000000      2.000000
  0.000000  0.030395  0.030395      2.000000
  0.030395  0.000000  0.030395      2.000000
 -0.030395  0.030395  0.000000      2.000000
 -0.030395  0.000000  0.030395      2.000000
  0.000000 -0.030395  0.030395      2.000000
  0.060790  0.030395  0.000000      2.000000
  0.000000  0.060790  0.030395      2.000000
  0.030395  0.000000  0.060790      2.000000
 -0.030395  0.060790  0.000000      2.000000
 -0.060790  0.000000  0.030395      2.000000
  0.000000  0.030395  0.060790      2.000000
  0.000000 -0.060790  0.030395      2.000000
 -0.030395  0.000000  0.060790      2.000000
  0.060790  0.000000  0.030395      2.000000
  0.000000 -0.030395  0.060790      2.000000
  0.060790 -0.030395  0.000000      2.000000
  0.030395  0.060790  0.000000      2.000000
  0.060790  0.060790  0.000000      2.000000
  0.000000  0.060790  0.060790      2.000000
  0.060790  0.000000  0.060790      2.000000
 -0.060790  0.060790  0.000000      2.000000
 -0.060790  0.000000  0.060790      2.000000
  0.000000 -0.060790  0.060790      2.000000
  0.030395  0.030395  0.030395      2.000000
 -0.030395  0.030395  0.030395      2.000000
 -0.030395 -0.030395  0.030395      2.000000
  0.030395 -0.030395  0.030395      2.000000
  0.060790  0.030395  0.030395      2.000000
  0.030395  0.060790  0.030395      2.000000
  0.030395  0.030395  0.060790      2.000000
 -0.030395  0.060790  0.030395      2.000000
 -0.060790  0.030395  0.030395      2.000000
 -0.030395  0.030395  0.060790      2.000000
 -0.060790 -0.030395  0.030395      2.000000
 -0.030395 -0.060790  0.030395      2.000000
 -0.030395 -0.030395  0.060790      2.000000
  0.030395 -0.060790  0.030395      2.000000
  0.060790 -0.030395  0.030395      2.000000
  0.030395 -0.030395  0.060790      2.000000
  0.060790  0.060790  0.030395      2.000000
  0.030395  0.060790  0.060790      2.000000
  0.060790  0.030395  0.060790      2.000000
 -0.060790  0.060790  0.030395      2.000000
 -0.060790  0.030395  0.060790      2.000000
 -0.030395  0.060790  0.060790      2.000000
 -0.060790 -0.060790  0.030395      2.000000
 -0.030395 -0.060790  0.060790      2.000000
 -0.060790 -0.030395  0.060790      2.000000
  0.060790 -0.060790  0.030395      2.000000
  0.060790 -0.030395  0.060790      2.000000
  0.030395 -0.060790  0.060790      2.000000
  0.060790  0.060790  0.060790      2.000000
 -0.060790  0.060790  0.060790      2.000000
 -0.060790 -0.060790  0.060790      2.000000
  0.060790 -0.060790  0.060790      2.000000
 


--------------------------------------------------------------------------------------------------------




 Dimension of arrays:
   k-points           NKPTS =     63   k-points in BZ     NKDIM =     63   number of bands    NBANDS=    120
   number of dos      NEDOS =    301   number of ions     NIONS =     16
   non local maximal  LDIM  =      6   non local SUM 2l+1 LMDIM =     18
   total plane-waves  NPLWV =  46656
   max r-space proj   IRMAX =      1   max aug-charges    IRDMAX=   9546
   dimension x,y,z NGX =    36 NGY =   36 NGZ =   36
   dimension x,y,z NGXF=    72 NGYF=   72 NGZF=   72
   support grid    NGXF=    72 NGYF=   72 NGZF=   72
   ions per type =               4   1   7   4
   NGX,Y,Z   is equivalent  to a cutoff of   9.10,  9.10,  9.10 a.u.
   NGXF,Y,Z  is equivalent  to a cutoff of  18.19, 18.19, 18.19 a.u.

 SYSTEM =  unknown system                          
 POSCAR =  Nb-Mo-Ta-W alloy                        

 Startparameter for this run:
   NWRITE =      2    write-flag & timer
   PREC   = accura    normal or accurate (medium, high low for compatibility)
   ISTART =      0    job   : 0-new  1-cont  2-samecut
   ICHARG =      2    charge: 1-file 2-atom 10-const
   ISPIN  =      1    spin polarized calculation?
   LNONCOLLINEAR =      F non collinear calculations
   LSORBIT =      F    spin-orbit coupling
   INIWAV =      1    electr: 0-lowe 1-rand  2-diag
   LASPH  =      F    aspherical Exc in radial PAW
 Electronic Relaxation 1
   ENCUT  =  250.0 eV  18.37 Ry    4.29 a.u.   8.48  8.48  8.48*2*pi/ulx,y,z
   ENINI  =  250.0     initial cutoff
   ENAUG  =  455.7 eV  augmentation charge cutoff
   NELM   =     80;   NELMIN=  2; NELMDL= -5     # of ELM steps 
   EDIFF  = 0.1E-07   stopping-criterion for ELM
   LREAL  =      F    real-space projection
   NLSPLINE    = F    spline interpolate recip. space projectors
   LCOMPAT=      F    compatible to vasp.4.4
   GGA_COMPAT  = T    GGA compatible to vasp.4.4-vasp.4.6
   LMAXPAW     = -100 max onsite density
   LMAXMIX     =    2 max onsite mixed and CHGCAR
   VOSKOWN=      0    Vosko Wilk Nusair interpolation
   ROPT   =    0.00000   0.00000   0.00000   0.00000
 Ionic relaxation
   EDIFFG = -.1E-01   stopping-criterion for IOM
   NSW    =      0    number of steps for IOM
   NBLOCK =      1;   KBLOCK =      1    inner block; outer block 
   IBRION =     -1    ionic relax: 0-MD 1-quasi-New 2-CG
   NFREE  =      0    steps in history (QN), initial steepest desc. (CG)
   ISIF   =      2    stress and relaxation
   IWAVPR =     10    prediction:  0-non 1-charg 2-wave 3-comb
   ISYM   =      2    0-nonsym 1-usesym 2-fastsym
   LCORR  =      T    Harris-Foulkes like correction to forces

   POTIM  = 0.5000    time-step for ionic-motion
   TEIN   =    0.0    initial temperature
   TEBEG  =    0.0;   TEEND  =   0.0 temperature during run
   SMASS  =  -3.00    Nose mass-parameter (am)
   estimated Nose-frequenzy (Omega)   =  0.10E-29 period in steps = 0.13E+47 mass=  -0.989E-27a.u.
   SCALEE = 1.0000    scale energy and forces
   NPACO  =    256;   APACO  = 10.0  distance and # of slots for P.C.
   PSTRESS=    0.0 pullay stress

  Mass of Ions in am
   POMASS =  92.91 95.94180.95183.85
  Ionic Valenz
   ZVAL   =  13.00 14.00 11.00 14.00
  Atomic Wigner-Seitz radii
   RWIGS  =  -1.00 -1.00 -1.00 -1.00
  virtual crystal weights 
   VCA    =   1.00  1.00  1.00  1.00
   NELECT =     199.0000    total number of electrons
   NUPDOWN=      -1.0000    fix difference up-down

 DOS related values:
   EMIN   =  10.00;   EMAX   =-10.00  energy-range for DOS
   EFERMI =   0.00
   ISMEAR =     0;   SIGMA  =   0.02  broadening in eV -4-tet -1-fermi 0-gaus

 Electronic relaxation 2 (details)
   IALGO  =     38    algorithm
   LDIAG  =      T    sub-space diagonalisation (order eigenvalues)
   LSUBROT=      F    optimize rotation matrix (better conditioning)
   TURBO    =      0    0=normal 1=particle mesh
   IRESTART =      0    0=no restart 2=restart with 2 vectors
   NREBOOT  =      0    no. of reboots
   NMIN     =      0    reboot dimension
   EREF     =   0.00    reference energy to select bands
   IMIX   =      4    mixing-type and parameters
     AMIX     =   0.40;   BMIX     =  1.00
     AMIX_MAG =   1.60;   BMIX_MAG =  1.00
     AMIN     =   0.10
     WC   =   100.;   INIMIX=   1;  MIXPRE=   1;  MAXMIX= -45

 Intra band minimization:
   WEIMIN = 0.0000     energy-eigenvalue tresh-hold
   EBREAK =  0.21E-10  absolut break condition
   DEPER  =   0.30     relativ break condition  

   TIME   =   0.40     timestep for ELM

  volume/ion in A,a.u.               =      17.81       120.16
  Fermi-wavevector in a.u.,A,eV,Ry     =   1.452557  2.744935 28.707244  2.109923
  Thomas-Fermi vector in A             =   2.569926
 
 Write flags
   LWAVE        =      F    write WAVECAR
   LDOWNSAMPLE  =      F    k-point downsampling of WAVECAR
   LCHARG       =      F    write CHGCAR
   LVTOT        =      F    write LOCPOT, total local potential
   LVHAR        =      F    write LOCPOT, Hartree potential only
   LELF         =      F    write electronic localiz. function (ELF)
   LORBIT       =      0    0 simple, 1 ext, 2 COOP (PROOUT), +10 PAW based schemes


 Dipole corrections
   LMONO  =      F    monopole corrections only (constant potential shift)
   LDIPOL =      F    correct potential (dipole corrections)
   IDIPOL =      0    1-x, 2-y, 3-z, 4-all directions 
   EPSILON=  1.0000000 bulk dielectric constant

 Core level calculations are selected ICORELEVEL =  1
 Exchange correlation treatment:
   GGA     =    PE    GGA type
   LEXCH   =     8    internal setting for exchange type
   LIBXC   =     F    Libxc                    
   VOSKOWN =     0    Vosko Wilk Nusair interpolation
   LHFCALC =     F    Hartree Fock is set to
   LHFONE  =     F    Hartree Fock one center treatment
   AEXX    =    0.0000 exact exchange contribution

 Linear response parameters
   LEPSILON=     F    determine dielectric tensor
   LRPA    =     F    only Hartree local field effects (RPA)
   LNABLA  =     F    use nabla operator in PAW spheres
   LVEL    =     F    velocity operator in full k-point grid
   CSHIFT  =0.1000    complex shift for real part using Kramers Kronig
   OMEGAMAX=  -1.0    maximum frequency
   DEG_THRESHOLD= 0.2000000E-02 threshold for treating states as degnerate
   RTIME   =   -0.100 relaxation time in fs
  (WPLASMAI=    0.000 imaginary part of plasma frequency in eV, 0.658/RTIME)
   DFIELD  = 0.0000000 0.0000000 0.0000000 field for delta impulse in time
 
  Optional k-point grid parameters
   LKPOINTS_OPT  =     F    use optional k-point grid
   KPOINTS_OPT_MODE=     1    mode for optional k-point grid
 
 Orbital magnetization related:
   ORBITALMAG=     F  switch on orbital magnetization
   LCHIMAG   =     F  perturbation theory with respect to B field
   DQ        =  0.001000  dq finite difference perturbation B field
   LLRAUG    =     F  two centre corrections for induced B field



--------------------------------------------------------------------------------------------------------


 Static calculation
 charge density and potential will be updated during run
 non-spin polarized calculation
 Variant of blocked Davidson
 Davidson routine will perform the subspace rotation
 perform sub-space diagonalisation
    after iterative eigenvector-optimisation
 modified Broyden-mixing scheme, WC =      100.0
 initial mixing is a Kerker type mixing with AMIX =  0.4000 and BMIX =      1.0000
 Hartree-type preconditioning will be used
 using additional bands           20
 reciprocal scheme for non local part
 use partial core corrections
 calculate Harris-corrections to forces 
   (improved forces if not selfconsistent)
 use gradient corrections 
 use of overlap-Matrix (Vanderbilt PP)
 Gauss-broadening in eV      SIGMA  =   0.02


--------------------------------------------------------------------------------------------------------


  energy-cutoff  :      250.00
  volume of cell :      284.89
      direct lattice vectors                 reciprocal lattice vectors
     6.580000000  0.000000000  0.000000000     0.151975684  0.000000000  0.000000000
     0.000000000  6.580000000  0.000000000     0.000000000  0.151975684  0.000000000
     0.000000000  0.000000000  6.580000000     0.000000000  0.000000000  0.151975684

  length of vectors
     6.580000000  6.580000000  6.580000000     0.151975684  0.151975684  0.151975684


 
 k-points in units of 2pi/SCALE and weight: K-Spacing Value to Generate K-Mesh: 0.03
   0.00000000  0.00000000  0.00000000       0.008
   0.03039514  0.00000000  0.00000000       0.016
   0.00000000  0.03039514  0.00000000       0.016
   0.00000000  0.00000000  0.03039514       0.016
   0.06079027  0.00000000  0.00000000       0.016
   0.00000000  0.06079027  0.00000000       0.016
   0.00000000  0.00000000  0.06079027       0.016
   0.03039514  0.03039514  0.00000000       0.016
   0.00000000  0.03039514  0.03039514       0.016
   0.03039514  0.00000000  0.03039514       0.016
  -0.03039514  0.03039514  0.00000000       0.016
  -0.03039514  0.00000000  0.03039514       0.016
   0.00000000 -0.03039514  0.03039514       0.016
   0.06079027  0.03039514  0.00000000       0.016
   0.00000000  0.06079027  0.03039514       0.016
   0.03039514  0.00000000  0.06079027       0.016
  -0.03039514  0.06079027  0.00000000       0.016
  -0.06079027  0.00000000  0.03039514       0.016
   0.00000000  0.03039514  0.06079027       0.016
   0.00000000 -0.06079027  0.03039514       0.016
  -0.03039514  0.00000000  0.06079027       0.016
   0.06079027  0.00000000  0.03039514       0.016
   0.00000000 -0.03039514  0.06079027       0.016
   0.06079027 -0.03039514  0.00000000       0.016
   0.03039514  0.06079027  0.00000000       0.016
   0.06079027  0.06079027  0.00000000       0.016
   0.00000000  0.06079027  0.06079027       0.016
   0.06079027  0.00000000  0.06079027       0.016
  -0.06079027  0.06079027  0.00000000       0.016
  -0.06079027  0.00000000  0.06079027       0.016
   0.00000000 -0.06079027  0.06079027       0.016
   0.03039514  0.03039514  0.03039514       0.016
  -0.03039514  0.03039514  0.03039514       0.016
  -0.03039514 -0.03039514  0.03039514       0.016
   0.03039514 -0.03039514  0.03039514       0.016
   0.06079027  0.03039514  0.03039514       0.016
   0.03039514  0.06079027  0.03039514       0.016
   0.03039514  0.03039514  0.06079027       0.016
  -0.03039514  0.06079027  0.03039514       0.016
  -0.06079027  0.03039514  0.03039514       0.016
  -0.03039514  0.03039514  0.06079027       0.016
  -0.06079027 -0.03039514  0.03039514       0.016
  -0.03039514 -0.06079027  0.03039514       0.016
  -0.03039514 -0.03039514  0.06079027       0.016
   0.03039514 -0.06079027  0.03039514       0.016
   0.06079027 -0.03039514  0.03039514       0.016
   0.03039514 -0.03039514  0.06079027       0.016
   0.06079027  0.06079027  0.03039514       0.016
   0.03039514  0.06079027  0.06079027       0.016
   0.06079027  0.03039514  0.06079027       0.016
  -0.06079027  0.06079027  0.03039514       0.016
  -0.06079027  0.03039514  0.06079027       0.016
  -0.03039514  0.06079027  0.06079027       0.016
  -0.06079027 -0.06079027  0.03039514       0.016
  -0.03039514 -0.06079027  0.06079027       0.016
  -0.06079027 -0.03039514  0.06079027       0.016
   0.06079027 -0.06079027  0.03039514       0.016
   0.06079027 -0.03039514  0.06079027       0.016
   0.03039514 -0.06079027  0.06079027       0.016
   0.06079027  0.06079027  0.06079027       0.016
  -0.06079027  0.06079027  0.06079027       0.016
  -0.06079027 -0.06079027  0.06079027       0.016
   0.06079027 -0.06079027  0.06079027       0.016
 
 k-points in reciprocal lattice and weights: K-Spacing Value to Generate K-Mesh: 0.03
   0.00000000  0.00000000  0.00000000       0.008
   0.20000000  0.00000000  0.00000000       0.016
   0.00000000  0.20000000  0.00000000       0.016
   0.00000000  0.00000000  0.20000000       0.016
   0.40000000  0.00000000  0.00000000       0.016
   0.00000000  0.40000000  0.00000000       0.016
   0.00000000  0.00000000  0.40000000       0.016
   0.20000000  0.20000000  0.00000000       0.016
   0.00000000  0.20000000  0.20000000       0.016
   0.20000000  0.00000000  0.20000000       0.016
  -0.20000000  0.20000000  0.00000000       0.016
  -0.20000000  0.00000000  0.20000000       0.016
   0.00000000 -0.20000000  0.20000000       0.016
   0.40000000  0.20000000  0.00000000       0.016
   0.00000000  0.40000000  0.20000000       0.016
   0.20000000  0.00000000  0.40000000       0.016
  -0.20000000  0.40000000  0.00000000       0.016
  -0.40000000  0.00000000  0.20000000       0.016
   0.00000000  0.20000000  0.40000000       0.016
   0.00000000 -0.40000000  0.20000000       0.016
  -0.20000000  0.00000000  0.40000000       0.016
   0.40000000  0.00000000  0.20000000       0.016
   0.00000000 -0.20000000  0.40000000       0.016
   0.40000000 -0.20000000  0.00000000       0.016
   0.20000000  0.40000000  0.00000000       0.016
   0.40000000  0.40000000  0.00000000       0.016
   0.00000000  0.40000000  0.40000000       0.016
   0.40000000  0.00000000  0.40000000       0.016
  -0.40000000  0.40000000  0.00000000       0.016
  -0.40000000  0.00000000  0.40000000       0.016
   0.00000000 -0.40000000  0.40000000       0.016
   0.20000000  0.20000000  0.20000000       0.016
  -0.20000000  0.20000000  0.20000000       0.016
  -0.20000000 -0.20000000  0.20000000       0.016
   0.20000000 -0.20000000  0.20000000       0.016
   0.40000000  0.20000000  0.20000000       0.016
   0.20000000  0.40000000  0.20000000       0.016
   0.20000000  0.20000000  0.40000000       0.016
  -0.20000000  0.40000000  0.20000000       0.016
  -0.40000000  0.20000000  0.20000000       0.016
  -0.20000000  0.20000000  0.40000000       0.016
  -0.40000000 -0.20000000  0.20000000       0.016
  -0.20000000 -0.40000000  0.20000000       0.016
  -0.20000000 -0.20000000  0.40000000       0.016
   0.20000000 -0.40000000  0.20000000       0.016
   0.40000000 -0.20000000  0.20000000       0.016
   0.20000000 -0.20000000  0.40000000       0.016
   0.40000000  0.40000000  0.20000000       0.016
   0.20000000  0.40000000  0.40000000       0.016
   0.40000000  0.20000000  0.40000000       0.016
  -0.40000000  0.40000000  0.20000000       0.016
  -0.40000000  0.20000000  0.40000000       0.016
  -0.20000000  0.40000000  0.40000000       0.016
  -0.40000000 -0.40000000  0.20000000       0.016
  -0.20000000 -0.40000000  0.40000000       0.016
  -0.40000000 -0.20000000  0.40000000       0.016
   0.40000000 -0.40000000  0.20000000       0.016
   0.40000000 -0.20000000  0.40000000       0.016
   0.20000000 -0.40000000  0.40000000       0.016
   0.40000000  0.40000000  0.40000000       0.016
  -0.40000000  0.40000000  0.40000000       0.016
  -0.40000000 -0.40000000  0.40000000       0.016
   0.40000000 -0.40000000  0.40000000       0.016
 
 position of ions in fractional coordinates (direct lattice) 
   0.75000000  0.25000000  0.75000000
   0.50000000  0.00000000  0.00000000
   0.25000000  0.75000000  0.25000000
   0.25000000  0.25000000  0.25000000
   0.75000000  0.75000000  0.75000000
   0.75000000  0.75000000  0.25000000
   0.75000000  0.25000000  0.25000000
   0.50000000  0.50000000  0.00000000
   0.00000000  0.00000000  0.00000000
   0.50000000  0.00000000  0.50000000
   0.25000000  0.75000000  0.75000000
   0.00000000  0.50000000  0.50000000
   0.25000000  0.25000000  0.75000000
   0.50000000  0.50000000  0.50000000
   0.00000000  0.50000000  0.00000000
   0.00000000  0.00000000  0.50000000
 
 position of ions in cartesian coordinates  (Angst):
   4.93500000  1.64500000  4.93500000
   3.29000000  0.00000000  0.00000000
   1.64500000  4.93500000  1.64500000
   1.64500000  1.64500000  1.64500000
   4.93500000  4.93500000  4.93500000
   4.93500000  4.93500000  1.64500000
   4.93500000  1.64500000  1.64500000
   3.29000000  3.29000000  0.00000000
   0.00000000  0.00000000  0.00000000
   3.29000000  0.00000000  3.29000000
   1.64500000  4.93500000  4.93500000
   0.00000000  3.29000000  3.29000000
   1.64500000  1.64500000  4.93500000
   3.29000000  3.29000000  3.29000000
   0.00000000  3.29000000  0.00000000
   0.00000000  0.00000000  3.29000000
 


--------------------------------------------------------------------------------------------------------


 k-point   1 :   0.0000 0.0000 0.0000  plane waves:    2517
 k-point   2 :   0.2000 0.0000 0.0000  plane waves:    2545
 k-point   3 :   0.0000 0.2000 0.0000  plane waves:    2545
 k-point   4 :   0.0000 0.0000 0.2000  plane waves:    2545
 k-point   5 :   0.4000 0.0000 0.0000  plane waves:    2569
 k-point   6 :   0.0000 0.4000 0.0000  plane waves:    2569
 k-point   7 :   0.0000 0.0000 0.4000  plane waves:    2569
 k-point   8 :   0.2000 0.2000 0.0000  plane waves:    2562
 k-point   9 :   0.0000 0.2000 0.2000  plane waves:    2562
 k-point  10 :   0.2000 0.0000 0.2000  plane waves:    2562
 k-point  11 :  -0.2000 0.2000 0.0000  plane waves:    2562
 k-point  12 :  -0.2000 0.0000 0.2000  plane waves:    2562
 k-point  13 :   0.0000-0.2000 0.2000  plane waves:    2562
 k-point  14 :   0.4000 0.2000 0.0000  plane waves:    2566
 k-point  15 :   0.0000 0.4000 0.2000  plane waves:    2566
 k-point  16 :   0.2000 0.0000 0.4000  plane waves:    2566
 k-point  17 :  -0.2000 0.4000 0.0000  plane waves:    2566
 k-point  18 :  -0.4000 0.0000 0.2000  plane waves:    2566
 k-point  19 :   0.0000 0.2000 0.4000  plane waves:    2566
 k-point  20 :   0.0000-0.4000 0.2000  plane waves:    2566
 k-point  21 :  -0.2000 0.0000 0.4000  plane waves:    2566
 k-point  22 :   0.4000 0.0000 0.2000  plane waves:    2566
 k-point  23 :   0.0000-0.2000 0.4000  plane waves:    2566
 k-point  24 :   0.4000-0.2000 0.0000  plane waves:    2566
 k-point  25 :   0.2000 0.4000 0.0000  plane waves:    2566
 k-point  26 :   0.4000 0.4000 0.0000  plane waves:    2570
 k-point  27 :   0.0000 0.4000 0.4000  plane waves:    2570
 k-point  28 :   0.4000 0.0000 0.4000  plane waves:    2570
 k-point  29 :  -0.4000 0.4000 0.0000  plane waves:    2570
 k-point  30 :  -0.4000 0.0000 0.4000  plane waves:    2570
 k-point  31 :   0.0000-0.4000 0.4000  plane waves:    2570
 k-point  32 :   0.2000 0.2000 0.2000  plane waves:    2572
 k-point  33 :  -0.2000 0.2000 0.2000  plane waves:    2572
 k-point  34 :  -0.2000-0.2000 0.2000  plane waves:    2572
 k-point  35 :   0.2000-0.2000 0.2000  plane waves:    2572
 k-point  36 :   0.4000 0.2000 0.2000  plane waves:    2546
 k-point  37 :   0.2000 0.4000 0.2000  plane waves:    2546
 k-point  38 :   0.2000 0.2000 0.4000  plane waves:    2546
 k-point  39 :  -0.2000 0.4000 0.2000  plane waves:    2546
 k-point  40 :  -0.4000 0.2000 0.2000  plane waves:    2546
 k-point  41 :  -0.2000 0.2000 0.4000  plane waves:    2546
 k-point  42 :  -0.4000-0.2000 0.2000  plane waves:    2546
 k-point  43 :  -0.2000-0.4000 0.2000  plane waves:    2546
 k-point  44 :  -0.2000-0.2000 0.4000  plane waves:    2546
 k-point  45 :   0.2000-0.4000 0.2000  plane waves:    2546
 k-point  46 :   0.4000-0.2000 0.2000  plane waves:    2546
 k-point  47 :   0.2000-0.2000 0.4000  plane waves:    2546
 k-point  48 :   0.4000 0.4000 0.2000  plane waves:    2549
 k-point  49 :   0.2000 0.4000 0.4000  plane waves:    2549
 k-point  50 :   0.4000 0.2000 0.4000  plane waves:    2549
 k-point  51 :  -0.4000 0.4000 0.2000  plane waves:    2549
 k-point  52 :  -0.4000 0.2000 0.4000  plane waves:    2549
 k-point  53 :  -0.2000 0.4000 0.4000  plane waves:    2549
 k-point  54 :  -0.4000-0.4000 0.2000  plane waves:    2549
 k-point  55 :  -0.2000-0.4000 0.4000  plane waves:    2549
 k-point  56 :  -0.4000-0.2000 0.4000  plane waves:    2549
 k-point  57 :   0.4000-0.4000 0.2000  plane waves:    2549
 k-point  58 :   0.4000-0.2000 0.4000  plane waves:    2549
 k-point  59 :   0.2000-0.4000 0.4000  plane waves:    2549
 k-point  60 :   0.4000 0.4000 0.4000  plane waves:    2533
 k-point  61 :  -0.4000 0.4000 0.4000  plane waves:    2533
 k-point  62 :  -0.4000-0.4000 0.4000  plane waves:    2533
 k-point  63 :   0.4000-0.4000 0.4000  plane waves:    2533

 maximum and minimum number of plane-waves per node :       235      194

 maximum number of plane-waves:      2572
 maximum index in each direction: 
   IXMAX=    8   IYMAX=    8   IZMAX=    8
   IXMIN=   -8   IYMIN=   -8   IZMIN=   -8


 parallel 3D FFT for wavefunctions:
    minimum data exchange during FFTs selected (reduces bandwidth)
 parallel 3D FFT for charge:
    minimum data exchange during FFTs selected (reduces bandwidth)


 total amount of memory used by VASP MPI-rank0    47721. kBytes
=======================================================================

   base      :      30000. kBytes
   nonl-proj :       8332. kBytes
   fftplans  :        456. kBytes
   grid      :        919. kBytes
   one-center:         31. kBytes
   wavefun   :       7983. kBytes
 
     INWAV:  cpu time      0.0000: real time      0.0001
 Broyden mixing: mesh for mixing (old mesh)
   NGX = 17   NGY = 17   NGZ = 17
  (NGX  = 72   NGY  = 72   NGZ  = 72)
  gives a total of   4913 points

 initial charge density was supplied:
 charge density of overlapping atoms calculated
 number of electron     199.0000000 magnetization 
 keeping initial charge density in first step


--------------------------------------------------------------------------------------------------------


 Maximum index for augmentation-charges          517 (set IRDMAX)


--------------------------------------------------------------------------------------------------------


 First call to EWALD:  gamma=   0.269
 Maximum number of real-space cells 3x 3x 3
 Maximum number of reciprocal cells 3x 3x 3

    FEWALD:  cpu time      0.0013: real time      0.0013


--------------------------------------- Iteration      1(   1)  ---------------------------------------


    POTLOK:  cpu time      0.0183: real time      0.0334
    SETDIJ:  cpu time      0.0024: real time      0.0026
     EDDAV:  cpu time      3.2092: real time      3.2249
       DOS:  cpu time      0.0049: real time      0.0049
    --------------------------------------------
      LOOP:  cpu time      3.2347: real time      3.2659

 eigenvalue-minimisations  : 15632
 total energy-change (2. order) : 0.1818948E+04  (-0.7621927E+04)
 number of electron     199.0000000 magnetization 
 augmentation part      199.0000000 magnetization 

 Free energy of the ion-electron system (eV)
  ---------------------------------------------------
  alpha Z        PSCENC =      1909.38992352
  Ewald energy   TEWEN  =    -19807.18461589
  -Hartree energ DENC   =     -3464.07138494
  -exchange      EXHF   =         0.00000000
  -V(xc)+E(xc)   XCENC  =       688.58621642
  PAW double counting   =     18033.49733401   -17733.15301587
  entropy T*S    EENTRO =        -0.00083145
  eigenvalues    EBANDS =      -682.38847093
  atomic energy  EATOM  =     22874.27322572
  Solvation  Ediel_sol  =         0.00000000
  ---------------------------------------------------
  free energy    TOTEN  =      1818.94838060 eV

  energy without entropy =     1818.94921205  energy(sigma->0) =     1818.94879632


--------------------------------------------------------------------------------------------------------




--------------------------------------- Iteration      1(   2)  ---------------------------------------


     EDDAV:  cpu time      3.0424: real time      3.0558
       DOS:  cpu time      0.0051: real time      0.0051
    --------------------------------------------
      LOOP:  cpu time      3.0475: real time      3.0609

 eigenvalue-minimisations  : 15472
 total energy-change (2. order) :-0.1843979E+04  (-0.1789981E+04)
 number of electron     199.0000000 magnetization 
 augmentation part      199.0000000 magnetization 

 Free energy of the ion-electron system (eV)
  ---------------------------------------------------
  alpha Z        PSCENC =      1909.38992352
  Ewald energy   TEWEN  =    -19807.18461589
  -Hartree energ DENC   =     -3464.07138494
  -exchange      EXHF   =         0.00000000
  -V(xc)+E(xc)   XCENC  =       688.58621642
  PAW double counting   =     18033.49733401   -17733.15301587
  entropy T*S    EENTRO =        -0.00081002
  eigenvalues    EBANDS =     -2526.36774043
  atomic energy  EATOM  =     22874.27322572
  Solvation  Ediel_sol  =         0.00000000
  ---------------------------------------------------
  free energy    TOTEN  =       -25.03086747 eV

  energy without entropy =      -25.03005746  energy(sigma->0) =      -25.03046246


--------------------------------------------------------------------------------------------------------




--------------------------------------- Iteration      1(   3)  ---------------------------------------


     EDDAV:  cpu time      4.2033: real time      4.2213
       DOS:  cpu time      0.0054: real time      0.0054
    --------------------------------------------
      LOOP:  cpu time      4.2087: real time      4.2267

 eigenvalue-minimisations  : 23752
 total energy-change (2. order) :-0.1594035E+03  (-0.1508433E+03)
 number of electron     199.0000000 magnetization 
 augmentation part      199.0000000 magnetization 

 Free energy of the ion-electron system (eV)
  ---------------------------------------------------
  alpha Z        PSCENC =      1909.38992352
  Ewald energy   TEWEN  =    -19807.18461589
  -Hartree energ DENC   =     -3464.07138494
  -exchange      EXHF   =         0.00000000
  -V(xc)+E(xc)   XCENC  =       688.58621642
  PAW double counting   =     18033.49733401   -17733.15301587
  entropy T*S    EENTRO =        -0.00361961
  eigenvalues    EBANDS =     -2685.76845095
  atomic energy  EATOM  =     22874.27322572
  Solvation  Ediel_sol  =         0.00000000
  ---------------------------------------------------
  free energy    TOTEN  =      -184.43438759 eV

  energy without entropy =     -184.43076798  energy(sigma->0) =     -184.43257778


--------------------------------------------------------------------------------------------------------




--------------------------------------- Iteration      1(   4)  ---------------------------------------


     EDDAV:  cpu time      3.9794: real time      3.9964
       DOS:  cpu time      0.0051: real time      0.0051
    --------------------------------------------
      LOOP:  cpu time      3.9845: real time      4.0039

 eigenvalue-minimisations  : 22504
 total energy-change (2. order) :-0.1035996E+02  (-0.1005687E+02)
 number of electron     199.0000000 magnetization 
 augmentation part      199.0000000 magnetization 

 Free energy of the ion-electron system (eV)
  ---------------------------------------------------
  alpha Z        PSCENC =      1909.38992352
  Ewald energy   TEWEN  =    -19807.18461589
  -Hartree energ DENC   =     -3464.07138494
  -exchange      EXHF   =         0.00000000
  -V(xc)+E(xc)   XCENC  =       688.58621642
  PAW double counting   =     18033.49733401   -17733.15301587
  entropy T*S    EENTRO =        -0.00370839
  eigenvalues    EBANDS =     -2696.12831735
  atomic energy  EATOM  =     22874.27322572
  Solvation  Ediel_sol  =         0.00000000
  ---------------------------------------------------
  free energy    TOTEN  =      -194.79434276 eV

  energy without entropy =     -194.79063438  energy(sigma->0) =     -194.79248857


--------------------------------------------------------------------------------------------------------




--------------------------------------- Iteration      1(   5)  ---------------------------------------


     EDDAV:  cpu time      4.1175: real time      4.1364
       DOS:  cpu time      0.0052: real time      0.0053
    CHARGE:  cpu time      0.0827: real time      0.0830
    MIXING:  cpu time      0.0002: real time      0.0002
    --------------------------------------------
      LOOP:  cpu time      4.2056: real time      4.2224

 eigenvalue-minimisations  : 23376
 total energy-change (2. order) :-0.6096868E+00  (-0.6048062E+00)
 number of electron     198.9999861 magnetization 
 augmentation part       46.3127288 magnetization 

 Broyden mixing:
  rms(total) = 0.56323E+01    rms(broyden)= 0.56316E+01
  rms(prec ) = 0.60701E+01
  weight for this iteration     100.00

 Free energy of the ion-electron system (eV)
  ---------------------------------------------------
  alpha Z        PSCENC =      1909.38992352
  Ewald energy   TEWEN  =    -19807.18461589
  -Hartree energ DENC   =     -3464.07138494
  -exchange      EXHF   =         0.00000000
  -V(xc)+E(xc)   XCENC  =       688.58621642
  PAW double counting   =     18033.49733401   -17733.15301587
  entropy T*S    EENTRO =        -0.00337384
  eigenvalues    EBANDS =     -2696.73833875
  atomic energy  EATOM  =     22874.27322572
  Solvation  Ediel_sol  =         0.00000000
  ---------------------------------------------------
  free energy    TOTEN  =      -195.40402961 eV

  energy without entropy =     -195.40065577  energy(sigma->0) =     -195.40234269


--------------------------------------------------------------------------------------------------------




--------------------------------------- Iteration      1(   6)  ---------------------------------------


    POTLOK:  cpu time      0.0046: real time      0.0048
    SETDIJ:  cpu time      0.0019: real time      0.0019
     EDDAV:  cpu time      3.4156: real time      3.4293
       DOS:  cpu time      0.0052: real time      0.0052
    CHARGE:  cpu time      0.0817: real time      0.0819
    MIXING:  cpu time      0.0003: real time      0.0003
    --------------------------------------------
      LOOP:  cpu time      3.5092: real time      3.5234

 eigenvalue-minimisations  : 18056
 total energy-change (2. order) : 0.6739959E+01  (-0.1589803E+01)
 number of electron     198.9999856 magnetization 
 augmentation part       47.6156608 magnetization 

 Broyden mixing:
  rms(total) = 0.23436E+01    rms(broyden)= 0.23435E+01
  rms(prec ) = 0.26836E+01
  weight for this iteration     100.00

 eigenvalues of (default mixing * dielectric matrix)
  average eigenvalue GAMMA=   1.5993
  1.5993

 Free energy of the ion-electron system (eV)
  ---------------------------------------------------
  alpha Z        PSCENC =      1909.38992352
  Ewald energy   TEWEN  =    -19807.18461589
  -Hartree energ DENC   =     -3272.74830554
  -exchange      EXHF   =         0.00000000
  -V(xc)+E(xc)   XCENC  =       679.23038453
  PAW double counting   =     22682.48067432   -22406.74438816
  entropy T*S    EENTRO =        -0.00442127
  eigenvalues    EBANDS =     -2847.35654813
  atomic energy  EATOM  =     22874.27322572
  Solvation  Ediel_sol  =         0.00000000
  ---------------------------------------------------
  free energy    TOTEN  =      -188.66407090 eV

  energy without entropy =     -188.65964962  energy(sigma->0) =     -188.66186026


--------------------------------------------------------------------------------------------------------




--------------------------------------- Iteration      1(   7)  ---------------------------------------


    POTLOK:  cpu time      0.0046: real time      0.0048
    SETDIJ:  cpu time      0.0018: real time      0.0018
     EDDAV:  cpu time      3.9042: real time      3.9195
       DOS:  cpu time      0.0053: real time      0.0053
    CHARGE:  cpu time      0.0801: real time      0.0804
    MIXING:  cpu time      0.0003: real time      0.0003
    --------------------------------------------
      LOOP:  cpu time      3.9963: real time      4.0120

 eigenvalue-minimisations  : 21752
 total energy-change (2. order) :-0.6189136E-01  (-0.1575207E+01)
 number of electron     198.9999860 magnetization 
 augmentation part       47.7003535 magnetization 

 Broyden mixing:
  rms(total) = 0.10349E+01    rms(broyden)= 0.10346E+01
  rms(prec ) = 0.23045E+01
  weight for this iteration     100.00

 eigenvalues of (default mixing * dielectric matrix)
  average eigenvalue GAMMA=   1.1702
  1.7577  0.5826

 Free energy of the ion-electron system (eV)
  ---------------------------------------------------
  alpha Z        PSCENC =      1909.38992352
  Ewald energy   TEWEN  =    -19807.18461589
  -Hartree energ DENC   =     -3195.05298212
  -exchange      EXHF   =         0.00000000
  -V(xc)+E(xc)   XCENC  =       674.95340039
  PAW double counting   =     26337.76498986   -26074.39373922
  entropy T*S    EENTRO =        -0.00410933
  eigenvalues    EBANDS =     -2908.47205519
  atomic energy  EATOM  =     22874.27322572
  Solvation  Ediel_sol  =         0.00000000
  ---------------------------------------------------
  free energy    TOTEN  =      -188.72596226 eV

  energy without entropy =     -188.72185293  energy(sigma->0) =     -188.72390759


--------------------------------------------------------------------------------------------------------




--------------------------------------- Iteration      1(   8)  ---------------------------------------


    POTLOK:  cpu time      0.0041: real time      0.0042
    SETDIJ:  cpu time      0.0017: real time      0.0017
     EDDAV:  cpu time      3.4674: real time      3.4813
       DOS:  cpu time      0.0053: real time      0.0054
    CHARGE:  cpu time      0.0817: real time      0.0819
    MIXING:  cpu time      0.0003: real time      0.0003
    --------------------------------------------
      LOOP:  cpu time      3.5605: real time      3.5748

 eigenvalue-minimisations  : 18632
 total energy-change (2. order) : 0.2016956E+01  (-0.7012133E+00)
 number of electron     198.9999858 magnetization 
 augmentation part       48.0380793 magnetization 

 Broyden mixing:
  rms(total) = 0.37250E+00    rms(broyden)= 0.37194E+00
  rms(prec ) = 0.54103E+00
  weight for this iteration     100.00

 eigenvalues of (default mixing * dielectric matrix)
  average eigenvalue GAMMA=   1.1359
  1.8722  1.0999  0.4355

 Free energy of the ion-electron system (eV)
  ---------------------------------------------------
  alpha Z        PSCENC =      1909.38992352
  Ewald energy   TEWEN  =    -19807.18461589
  -Hartree energ DENC   =     -3160.68119204
  -exchange      EXHF   =         0.00000000
  -V(xc)+E(xc)   XCENC  =       673.50642438
  PAW double counting   =     27423.05739724   -27163.93945908
  entropy T*S    EENTRO =        -0.00564758
  eigenvalues    EBANDS =     -2935.12506267
  atomic energy  EATOM  =     22874.27322572
  Solvation  Ediel_sol  =         0.00000000
  ---------------------------------------------------
  free energy    TOTEN  =      -186.70900639 eV

  energy without entropy =     -186.70335881  energy(sigma->0) =     -186.70618260


--------------------------------------------------------------------------------------------------------




--------------------------------------- Iteration      1(   9)  ---------------------------------------


    POTLOK:  cpu time      0.0045: real time      0.0047
    SETDIJ:  cpu time      0.0017: real time      0.0017
     EDDAV:  cpu time      3.7164: real time      3.7310
       DOS:  cpu time      0.0053: real time      0.0053
    CHARGE:  cpu time      0.0783: real time      0.0786
    MIXING:  cpu time      0.0003: real time      0.0003
    --------------------------------------------
      LOOP:  cpu time      3.8066: real time      3.8215

 eigenvalue-minimisations  : 20472
 total energy-change (2. order) :-0.3726773E-01  (-0.1266815E+00)
 number of electron     198.9999859 magnetization 
 augmentation part       48.0335495 magnetization 

 Broyden mixing:
  rms(total) = 0.28100E+00    rms(broyden)= 0.28093E+00
  rms(prec ) = 0.41011E+00
  weight for this iteration     100.00

 eigenvalues of (default mixing * dielectric matrix)
  average eigenvalue GAMMA=   1.1962
  2.1422  1.6954  0.5631  0.3840

 Free energy of the ion-electron system (eV)
  ---------------------------------------------------
  alpha Z        PSCENC =      1909.38992352
  Ewald energy   TEWEN  =    -19807.18461589
  -Hartree energ DENC   =     -3158.08518421
  -exchange      EXHF   =         0.00000000
  -V(xc)+E(xc)   XCENC  =       673.41868599
  PAW double counting   =     27791.00837936   -27531.63374322
  entropy T*S    EENTRO =        -0.00561846
  eigenvalues    EBANDS =     -2937.92732693
  atomic energy  EATOM  =     22874.27322572
  Solvation  Ediel_sol  =         0.00000000
  ---------------------------------------------------
  free energy    TOTEN  =      -186.74627412 eV

  energy without entropy =     -186.74065566  energy(sigma->0) =     -186.74346489


--------------------------------------------------------------------------------------------------------




--------------------------------------- Iteration      1(  10)  ---------------------------------------


    POTLOK:  cpu time      0.0045: real time      0.0047
    SETDIJ:  cpu time      0.0017: real time      0.0017
     EDDAV:  cpu time      3.6765: real time      3.6909
       DOS:  cpu time      0.0052: real time      0.0052
    CHARGE:  cpu time      0.0802: real time      0.0804
    MIXING:  cpu time      0.0003: real time      0.0003
    --------------------------------------------
      LOOP:  cpu time      3.7685: real time      3.7833

 eigenvalue-minimisations  : 20160
 total energy-change (2. order) : 0.2978634E-01  (-0.2628013E-01)
 number of electron     198.9999859 magnetization 
 augmentation part       47.9946921 magnetization 

 Broyden mixing:
  rms(total) = 0.12814E+00    rms(broyden)= 0.12807E+00
  rms(prec ) = 0.18529E+00
  weight for this iteration     100.00

 eigenvalues of (default mixing * dielectric matrix)
  average eigenvalue GAMMA=   1.2080
  2.6142  1.7719  0.8085  0.4516  0.3940

 Free energy of the ion-electron system (eV)
  ---------------------------------------------------
  alpha Z        PSCENC =      1909.38992352
  Ewald energy   TEWEN  =    -19807.18461589
  -Hartree energ DENC   =     -3160.55622763
  -exchange      EXHF   =         0.00000000
  -V(xc)+E(xc)   XCENC  =       673.52688313
  PAW double counting   =     28133.02129255   -27872.33139721
  entropy T*S    EENTRO =        -0.00539107
  eigenvalues    EBANDS =     -2936.85018090
  atomic energy  EATOM  =     22874.27322572
  Solvation  Ediel_sol  =         0.00000000
  ---------------------------------------------------
  free energy    TOTEN  =      -186.71648778 eV

  energy without entropy =     -186.71109671  energy(sigma->0) =     -186.71379225


--------------------------------------------------------------------------------------------------------




--------------------------------------- Iteration      1(  11)  ---------------------------------------


    POTLOK:  cpu time      0.0046: real time      0.0048
    SETDIJ:  cpu time      0.0018: real time      0.0018
     EDDAV:  cpu time      3.8692: real time      3.8841
       DOS:  cpu time      0.0049: real time      0.0050
    CHARGE:  cpu time      0.0815: real time      0.0817
    MIXING:  cpu time      0.0003: real time      0.0003
    --------------------------------------------
      LOOP:  cpu time      3.9625: real time      3.9778

 eigenvalue-minimisations  : 20520
 total energy-change (2. order) : 0.3166944E-02  (-0.7736173E-02)
 number of electron     198.9999860 magnetization 
 augmentation part       47.9578149 magnetization 

 Broyden mixing:
  rms(total) = 0.34089E-01    rms(broyden)= 0.34024E-01
  rms(prec ) = 0.68427E-01
  weight for this iteration     100.00

 eigenvalues of (default mixing * dielectric matrix)
  average eigenvalue GAMMA=   1.1033
  2.5148  1.7525  0.8851  0.6368  0.4540  0.3770

 Free energy of the ion-electron system (eV)
  ---------------------------------------------------
  alpha Z        PSCENC =      1909.38992352
  Ewald energy   TEWEN  =    -19807.18461589
  -Hartree energ DENC   =     -3164.37379958
  -exchange      EXHF   =         0.00000000
  -V(xc)+E(xc)   XCENC  =       673.70299662
  PAW double counting   =     28345.93771802   -28083.73395403
  entropy T*S    EENTRO =        -0.00570477
  eigenvalues    EBANDS =     -2934.71911045
  atomic energy  EATOM  =     22874.27322572
  Solvation  Ediel_sol  =         0.00000000
  ---------------------------------------------------
  free energy    TOTEN  =      -186.71332084 eV

  energy without entropy =     -186.70761607  energy(sigma->0) =     -186.71046845


--------------------------------------------------------------------------------------------------------




--------------------------------------- Iteration      1(  12)  ---------------------------------------


    POTLOK:  cpu time      0.0046: real time      0.0048
    SETDIJ:  cpu time      0.0017: real time      0.0017
     EDDAV:  cpu time      3.7545: real time      3.7693
       DOS:  cpu time      0.0051: real time      0.0051
[...]
     17     -29.3880      2.00000
     18     -29.3837      2.00000
     19     -29.2884      2.00000
     20     -29.2089      2.00000
     21     -29.2030      2.00000
     22     -26.3027      2.00000
     23     -26.2971      2.00000
     24     -26.2897      2.00000
     25     -25.7861      2.00000
     26     -25.7645      2.00000
     27     -25.7487      2.00000
     28     -25.6750      2.00000
     29     -25.6535      2.00000
     30     -25.6430      2.00000
     31     -25.5320      2.00000
     32     -25.5235      2.00000
     33     -25.4962      2.00000
     34     -25.4632      2.00000
     35     -25.4347      2.00000
     36     -25.4316      2.00000
     37     -25.4133      2.00000
     38     -25.3751      2.00000
     39     -25.3353      2.00000
     40     -25.2020      2.00000
     41     -25.1801      2.00000
     42     -25.1730      2.00000
     43     -25.0973      2.00000
     44     -25.0823      2.00000
     45     -25.0731      2.00000
     46     -22.3822      2.00000
     47     -22.2406      2.00000
     48     -22.0806      2.00000
     49     -22.0625      2.00000
     50     -22.0517      2.00000
     51     -22.0427      2.00000
     52     -22.0366      2.00000
     53     -22.0134      2.00000
     54     -21.9889      2.00000
     55     -21.9526      2.00000
     56     -21.8060      2.00000
     57     -21.6848      2.00000
     58       2.8415      2.00000
     59       3.2289      2.00000
     60       3.5212      2.00000
     61       3.8821      2.00000
     62       4.0372      2.00000
     63       4.2213      2.00000
     64       4.6179      2.00000
     65       5.0450      2.00000
     66       5.5680      2.00000
     67       5.6858      2.00000
     68       5.6952      2.00000
     69       5.7079      2.00000
     70       5.7715      2.00000
     71       5.8660      2.00000
     72       5.8847      2.00000
     73       5.9238      2.00000
     74       5.9961      2.00000
     75       6.0465      2.00000
     76       6.0912      2.00000
     77       6.1433      2.00000
     78       6.4787      2.00000
     79       6.5097      2.00000
     80       6.5539      2.00000
     81       6.6188      2.00000
     82       6.6694      2.00000
     83       6.6908      2.00000
     84       6.7068      2.00000
     85       6.7529      2.00000
     86       6.7981      2.00000
     87       6.8066      2.00000
     88       6.8360      2.00000
     89       6.8476      2.00000
     90       6.8807      2.00000
     91       6.9642      2.00000
     92       7.0018      2.00000
     93       7.0583      2.00000
     94       7.0815      2.00000
     95       7.1086      2.00000
     96       7.1513      2.00000
     97       7.1841      2.00000
     98       7.1920      2.00000
     99       7.2364      2.00000
    100       7.2989      2.00000
    101       7.3092      2.00000
    102       7.3505      2.00000
    103       7.3852      2.00000
    104       7.4153      2.00000
    105       7.8023      2.00000
    106      10.6766      0.00000
    107      10.7244      0.00000
    108      10.9326      0.00000
    109      10.9922      0.00000
    110      11.0400      0.00000
    111      11.0770      0.00000
    112      11.1676      0.00000
    113      11.1964      0.00000
    114      11.2695      0.00000
    115      11.3394      0.00000
    116      11.3755      0.00000
    117      11.4081      0.00000
    118      11.5198      0.00000
    119      11.5542      0.00000
    120      11.6376      0.00000

 k-point    63 :       0.4000   -0.4000    0.4000
  band No.  band energies     occupation 
      1     -65.1778      2.00000
      2     -65.1697      2.00000
      3     -65.1681      2.00000
      4     -65.1414      2.00000
      5     -52.1400      2.00000
      6     -45.9707      2.00000
      7     -45.9457      2.00000
      8     -45.9200      2.00000
      9     -45.8591      2.00000
     10     -29.5568      2.00000
     11     -29.5512      2.00000
     12     -29.4701      2.00000
     13     -29.4063      2.00000
     14     -29.4057      2.00000
     15     -29.3981      2.00000
     16     -29.3885      2.00000
     17     -29.3878      2.00000
     18     -29.3836      2.00000
     19     -29.2880      2.00000
     20     -29.2092      2.00000
     21     -29.2039      2.00000
     22     -26.3027      2.00000
     23     -26.2971      2.00000
     24     -26.2897      2.00000
     25     -25.7880      2.00000
     26     -25.7605      2.00000
     27     -25.7490      2.00000
     28     -25.6728      2.00000
     29     -25.6540      2.00000
     30     -25.6453      2.00000
     31     -25.5370      2.00000
     32     -25.5203      2.00000
     33     -25.4951      2.00000
     34     -25.4595      2.00000
     35     -25.4390      2.00000
     36     -25.4297      2.00000
     37     -25.4176      2.00000
     38     -25.3712      2.00000
     39     -25.3358      2.00000
     40     -25.2046      2.00000
     41     -25.1789      2.00000
     42     -25.1725      2.00000
     43     -25.0960      2.00000
     44     -25.0851      2.00000
     45     -25.0715      2.00000
     46     -22.3897      2.00000
     47     -22.2421      2.00000
     48     -22.0807      2.00000
     49     -22.0609      2.00000
     50     -22.0485      2.00000
     51     -22.0415      2.00000
     52     -22.0274      2.00000
     53     -22.0133      2.00000
     54     -21.9879      2.00000
     55     -21.9517      2.00000
     56     -21.8077      2.00000
     57     -21.6911      2.00000
     58       2.7870      2.00000
     59       3.3568      2.00000
     60       3.5427      2.00000
     61       3.8112      2.00000
     62       3.9966      2.00000
     63       4.3609      2.00000
     64       4.4014      2.00000
     65       5.1148      2.00000
     66       5.5944      2.00000
     67       5.6624      2.00000
     68       5.6826      2.00000
     69       5.7195      2.00000
     70       5.7951      2.00000
     71       5.8177      2.00000
     72       5.9336      2.00000
     73       5.9708      2.00000
     74       6.0014      2.00000
     75       6.0329      2.00000
     76       6.0773      2.00000
     77       6.1011      2.00000
     78       6.4384      2.00000
     79       6.4969      2.00000
     80       6.5945      2.00000
     81       6.6253      2.00000
     82       6.6625      2.00000
     83       6.6831      2.00000
     84       6.7420      2.00000
     85       6.7610      2.00000
     86       6.7903      2.00000
     87       6.8217      2.00000
     88       6.8392      2.00000
     89       6.8682      2.00000
     90       6.9241      2.00000
     91       6.9553      2.00000
     92       7.0002      2.00000
     93       7.0190      2.00000
     94       7.0777      2.00000
     95       7.1019      2.00000
     96       7.1352      2.00000
     97       7.1753      2.00000
     98       7.2012      2.00000
     99       7.2528      2.00000
    100       7.2734      2.00000
    101       7.3392      2.00000
    102       7.3471      2.00000
    103       7.3878      2.00000
    104       7.4277      2.00000
    105       7.7607      2.00000
    106      10.6919      0.00000
    107      10.7177      0.00000
    108      10.9464      0.00000
    109      10.9904      0.00000
    110      11.0181      0.00000
    111      11.0973      0.00000
    112      11.1720      0.00000
    113      11.1940      0.00000
    114      11.2454      0.00000
    115      11.2921      0.00000
    116      11.3968      0.00000
    117      11.4163      0.00000
    118      11.5306      0.00000
    119      11.5785      0.00000
    120      11.6502      0.00000


--------------------------------------------------------------------------------------------------------


 soft charge-density along one line, spin component           1
         0         1         2         3         4         5         6         7         8         9
 total charge-density along one line
 
 pseudopotential strength for first ion, spin component:           1
  5.862 -20.757   0.001  -0.001   0.001  -0.002   0.002  -0.002
-20.757   9.628   0.001  -0.001   0.001  -0.000   0.000  -0.000
  0.001   0.001 -10.033   0.000  -0.001   6.351  -0.000   0.001
 -0.001  -0.001   0.000 -10.033  -0.000  -0.000   6.351   0.000
  0.001   0.001  -0.001  -0.000 -10.034   0.001   0.000   6.352
 -0.002  -0.000   6.351  -0.000   0.001   7.717  -0.000  -0.000
  0.002   0.000  -0.000   6.351   0.000  -0.000   7.717  -0.000
 -0.002  -0.000   0.001   0.000   6.352  -0.000  -0.000   7.717
 -0.000  -0.000   0.001   0.000   0.001  -0.001  -0.001  -0.001
  0.000   0.000  -0.001   0.001   0.000   0.001  -0.001  -0.001
  0.000  -0.000  -0.000  -0.001  -0.000   0.000   0.001   0.000
 -0.000   0.000   0.000   0.001  -0.001  -0.001  -0.001   0.001
 -0.000  -0.000  -0.001  -0.000   0.001   0.001  -0.000  -0.001
 -0.001  -0.000   0.001   0.000   0.001  -0.001  -0.001  -0.001
  0.000   0.000  -0.001   0.001   0.000   0.001  -0.001  -0.001
  0.001  -0.000  -0.000  -0.001  -0.000   0.001   0.001   0.000
 -0.000   0.000   0.000   0.001  -0.001  -0.001  -0.001   0.001
 -0.000  -0.000  -0.001  -0.000   0.001   0.001  -0.000  -0.001
 total augmentation occupancy for first ion, spin component:           1
  1.995  -0.047  -0.000   0.000  -0.000  -0.000   0.000  -0.000   0.002  -0.003   0.001  -0.003  -0.001  -0.001   0.002  -0.001
 -0.047   1.295  -0.001   0.001  -0.001  -0.000   0.000  -0.000  -0.002   0.005   0.028   0.004  -0.003   0.007  -0.008  -0.012
 -0.000  -0.001   1.996   0.000  -0.000  -0.029  -0.001   0.001  -0.005   0.005  -0.000  -0.013  -0.000   0.003  -0.003   0.000
  0.000   0.001   0.000   1.996   0.000  -0.001  -0.030  -0.001  -0.013  -0.005  -0.000  -0.005  -0.000   0.008   0.003  -0.000
 -0.000  -0.001  -0.000   0.000   1.996   0.001  -0.001  -0.030  -0.005  -0.013  -0.000   0.005   0.000   0.003   0.008   0.000
 -0.000  -0.000  -0.029  -0.001   0.001   0.066   0.001  -0.001   0.006  -0.005   0.002   0.013   0.003  -0.004   0.004  -0.001
  0.000   0.000  -0.001  -0.030  -0.001   0.001   0.070   0.001   0.012   0.006   0.004   0.006   0.000  -0.005  -0.004  -0.002
 -0.000  -0.000   0.001  -0.001  -0.030  -0.001   0.001   0.068   0.005   0.011   0.002  -0.005  -0.003  -0.004  -0.005  -0.001
  0.002  -0.002  -0.005  -0.013  -0.005   0.006   0.012   0.005   3.490   0.040  -0.019   0.041   0.000  -1.484  -0.028   0.008
 -0.003   0.005   0.005  -0.005  -0.013  -0.005   0.006   0.011   0.040   3.463  -0.010  -0.055   0.014  -0.028  -1.479   0.004
  0.001   0.028  -0.000  -0.000  -0.000   0.002   0.004   0.002  -0.019  -0.010   2.758  -0.010   0.003   0.008   0.004  -1.257
 -0.003   0.004  -0.013  -0.005   0.005   0.013   0.006  -0.005   0.041  -0.055  -0.010   3.440  -0.015  -0.028   0.033   0.004
 -0.001  -0.003  -0.000  -0.000   0.000   0.003   0.000  -0.003   0.000   0.014   0.003  -0.015   2.695  -0.000  -0.006   0.002
 -0.001   0.007   0.003   0.008   0.003  -0.004  -0.005  -0.004  -1.484  -0.028   0.008  -0.028  -0.000   0.643   0.017  -0.003
  0.002  -0.008  -0.003   0.003   0.008   0.004  -0.004  -0.005  -0.028  -1.479   0.004   0.033  -0.006   0.017   0.644  -0.002
 -0.001  -0.012   0.000  -0.000   0.000  -0.001  -0.002  -0.001   0.008   0.004  -1.257   0.004   0.002  -0.003  -0.002   0.581
  0.002  -0.008   0.008   0.003  -0.003  -0.006  -0.004   0.004  -0.029   0.033   0.004  -1.470   0.006   0.017  -0.018  -0.002
  0.001  -0.000  -0.000   0.000  -0.000  -0.001  -0.000   0.001  -0.000  -0.006   0.002   0.007  -1.231   0.000   0.002  -0.002


------------------------ aborting loop because EDIFF is reached ----------------------------------------


    CHARGE:  cpu time      0.0760: real time      0.0763
    FORLOC:  cpu time      0.0005: real time      0.0005
    FORNL :  cpu time      0.8009: real time      0.8033
    STRESS:  cpu time      0.9708: real time      0.9742
    FORCOR:  cpu time      0.0047: real time      0.0047
    FORHAR:  cpu time      0.0016: real time      0.0016
    MIXING:  cpu time      0.0007: real time      0.0007
    OFIELD:  cpu time      0.0000: real time      0.0000

  FORCE on cell =-STRESS in cart. coord.  units (eV):
  Direction    XX          YY          ZZ          XY          YZ          ZX
  --------------------------------------------------------------------------------------
  Alpha Z  1909.38992  1909.38992  1909.38992
  Ewald   -6604.16068 -6589.66710 -6613.41956     4.21537     2.10768     6.32305
  Hartree  1052.87684  1067.38839  1043.49063     3.05700     1.72932     5.74901
  E(xc)    -896.30945  -896.28024  -896.30966     0.00105    -0.00066    -0.00449
  Local    1559.55048  1530.52704  1578.81683    -6.25748    -3.78535   -11.85842
  n-local  -423.65642  -423.88282  -423.34340    -0.58231     0.09717     0.42508
  augment   523.23656   523.15950   523.12769    -0.14517    -0.02754    -0.15932
  Kinetic  2865.33831  2865.32543  2864.38182    -0.08242    -0.13492    -0.16087
  Fock        0.00000     0.00000     0.00000     0.00000     0.00000     0.00000
  -------------------------------------------------------------------------------------
  Total     -13.73443   -14.03986   -13.86573     0.20603    -0.01429     0.31404
  in kB     -77.24022   -78.95794   -77.97863     1.15866    -0.08035     1.76614
  external pressure =      -78.06 kB  Pullay stress =        0.00 kB


 VOLUME and BASIS-vectors are now :
 -----------------------------------------------------------------------------
  energy-cutoff  :      250.00
  volume of cell :      284.89
      direct lattice vectors                 reciprocal lattice vectors
     6.580000000  0.000000000  0.000000000     0.151975684  0.000000000  0.000000000
     0.000000000  6.580000000  0.000000000     0.000000000  0.151975684  0.000000000
     0.000000000  0.000000000  6.580000000     0.000000000  0.000000000  0.151975684

  length of vectors
     6.580000000  6.580000000  6.580000000     0.151975684  0.151975684  0.151975684


 FORCES acting on ions
    electron-ion (+dipol)            ewald-force                    non-local-force                 convergence-correction
 -----------------------------------------------------------------------------------------------
   0.105E+02 0.105E+02 -.105E+02   -.102E+02 -.102E+02 0.102E+02   -.103E+00 -.110E+00 0.102E+00   0.398E-05 0.232E-04 0.338E-04
   -.204E+02 0.204E+02 -.412E+02   0.204E+02 -.204E+02 0.408E+02   0.164E-01 -.839E-02 -.992E-02   0.875E-04 0.111E-03 0.549E-04
   -.104E+02 -.105E+02 0.105E+02   0.102E+02 0.102E+02 -.102E+02   0.686E-01 0.716E-01 -.736E-01   0.266E-04 0.122E-04 -.278E-04
   -.105E+02 0.105E+02 0.105E+02   0.102E+02 -.102E+02 -.102E+02   0.908E-01 -.903E-01 -.978E-01   0.338E-04 -.157E-04 -.561E-04
   0.112E+02 -.112E+02 -.112E+02   -.110E+02 0.110E+02 0.110E+02   -.118E-01 0.159E-01 0.105E-01   0.335E-05 -.200E-04 0.459E-04
   0.888E+01 -.889E+01 0.888E+01   -.863E+01 0.863E+01 -.863E+01   -.132E-01 0.261E-01 -.185E-01   -.616E-05 -.265E-04 -.227E-04
   0.885E+01 0.886E+01 0.886E+01   -.863E+01 -.863E+01 -.863E+01   0.302E-01 0.100E-01 0.123E-01   -.453E-05 0.357E-04 -.479E-05
   -.173E+02 -.173E+02 -.350E+02   0.173E+02 0.173E+02 0.345E+02   -.507E-03 0.170E-01 0.561E-01   0.499E-04 -.117E-03 0.144E-04
   0.173E+02 0.173E+02 -.350E+02   -.173E+02 -.173E+02 0.345E+02   -.906E-02 -.148E-01 0.557E-01   -.445E-04 0.105E-03 0.156E-04
   -.173E+02 0.173E+02 0.350E+02   0.173E+02 -.173E+02 -.345E+02   0.117E-01 -.113E-01 -.197E-01   0.468E-04 0.108E-03 -.351E-04
   -.889E+01 -.889E+01 -.890E+01   0.863E+01 0.863E+01 0.863E+01   0.311E-01 0.510E-01 0.384E-01   -.400E-04 -.644E-04 -.214E-05
   0.173E+02 -.173E+02 0.351E+02   -.173E+02 0.173E+02 -.345E+02   0.283E-03 0.239E-01 -.615E-01   -.310E-04 -.112E-03 0.301E-04
   -.112E+02 0.112E+02 -.111E+02   0.110E+02 -.110E+02 0.110E+02   -.689E-01 0.611E-01 -.746E-01   -.113E-04 0.583E-04 0.406E-04
   -.220E+02 -.220E+02 0.442E+02   0.220E+02 0.220E+02 -.439E+02   0.134E-01 0.182E-01 0.162E+00   0.734E-04 -.101E-03 -.616E-04
   0.220E+02 -.220E+02 -.442E+02   -.220E+02 0.220E+02 0.439E+02   -.119E-01 0.172E-01 -.163E+00   -.773E-04 -.904E-04 0.312E-04
   0.220E+02 0.220E+02 0.442E+02   -.220E+02 -.220E+02 -.439E+02   -.172E-01 -.161E-01 0.165E+00   -.741E-04 0.934E-04 -.584E-04
 -----------------------------------------------------------------------------------------------
   -.273E-01 -.612E-01 -.836E-01   0.139E-12 0.711E-14 -.711E-14   0.273E-01 0.612E-01 0.836E-01   0.364E-04 0.979E-07 -.204E-05
 
 
 POSITION                                       TOTAL-FORCE (eV/Angst)
 -----------------------------------------------------------------------------------
      4.93500      1.64500      4.93500         0.161489      0.169623     -0.169611
      3.29000      0.00000      0.00000        -0.033229      0.030251     -0.458586
      1.64500      4.93500      1.64500        -0.179176     -0.195459      0.184659
      1.64500      1.64500      1.64500        -0.176437      0.185205      0.171980
      4.93500      4.93500      4.93500         0.187851     -0.189861     -0.187302
      4.93500      4.93500      1.64500         0.234117     -0.234777      0.234455
      4.93500      1.64500      1.64500         0.251458      0.241682      0.245907
      3.29000      3.29000      0.00000        -0.002228     -0.014475     -0.473669
      0.00000      0.00000      0.00000         0.002537      0.018337     -0.475961
      3.29000      0.00000      3.29000         0.004823      0.017551      0.493575
      1.64500      4.93500      4.93500        -0.230016     -0.214730     -0.229205
      0.00000      3.29000      3.29000         0.002285     -0.007130      0.481852
      1.64500      1.64500      4.93500        -0.237370      0.231027     -0.237511
      3.29000      3.29000      3.29000        -0.020652     -0.032493      0.405949
      0.00000      3.29000      0.00000         0.019046     -0.032699     -0.402428
      0.00000      0.00000      3.29000         0.015504      0.027948      0.415897
 -----------------------------------------------------------------------------------
    total drift:                                0.000002      0.000009      0.000002


--------------------------------------------------------------------------------------------------------



  FREE ENERGIE OF THE ION-ELECTRON SYSTEM (eV)
  ---------------------------------------------------
  free  energy   TOTEN  =      -186.71106417 eV

  energy  without entropy=     -186.70538888  energy(sigma->0) =     -186.70822653
 


--------------------------------------------------------------------------------------------------------


    POTLOK:  cpu time      0.0062: real time      0.0062


--------------------------------------------------------------------------------------------------------


     LOOP+:  cpu time     82.7407: real time     83.5166
    4ORBIT:  cpu time      0.0000: real time      0.0000

 total amount of memory used by VASP MPI-rank0    47721. kBytes
=======================================================================

   base      :      30000. kBytes
   nonl-proj :       8332. kBytes
   fftplans  :        456. kBytes
   grid      :        919. kBytes
   one-center:         31. kBytes
   wavefun   :       7983. kBytes
 
  
  
 General timing and accounting informations for this job:
 ========================================================
  
                  Total CPU time used (sec):       86.377
                            User time (sec):       85.235
                          System time (sec):        1.142
                         Elapsed time (sec):       88.236
  
                   Maximum memory used (kb):       88384.
                   Average memory used (kb):          N/A
  
                          Minor page faults:         7748
                          Major page faults:            0
                 Voluntary context switches:          272
