 vasp.6.3.1 04May22 (build Jul 26 2022 04:02:40) complex                        
  
 executed on             LinuxIFC date 2023.11.30  03:26:19
 running on   48 total cores
 distrk:  each k-point on   48 cores,    1 groups
 distr:  one band on NCORE=  12 cores,    4 groups


--------------------------------------------------------------------------------------------------------


 INCAR:
   ISTART = 0
   NWRITE = 2
   PREC = Accurate
   ENCUT = 250
   GGA = PE
   NSW = 0
   ISIF = 2
   ISYM = 2
   NBLOCK = 1
   KBLOCK = 1
   IBRION = -1
   NELM = 80
   EDIFF = 1E-08
   EDIFFG = -0.01
   ALGO = Normal
   LDIAG = .TRUE.
   LREAL = .FALSE.
   ISMEAR = 0
   SIGMA = 0.02
   ICHARG = 2
   LPLANE = .TRUE.
   NPAR = 4
   LSCALU = .FALSE.
   NSIM = 4
   LWAVE = .FALSE.
   LCHARG = .FALSE.
   ICORELEVEL = 1

 POTCAR:    PAW_PBE Nb_sv 25May2007               
 POTCAR:    PAW_PBE Mo_sv 02Feb2006               
 POTCAR:    PAW_PBE Ta_pv 07Sep2000               
 POTCAR:    PAW_PBE W_sv 04Sep2015                
 POTCAR:    PAW_PBE Nb_sv 25May2007               
   SHA256 =  0e8fc07c9fcd1164cf2ade22d0399fd28f85e91cd773dfa6cf24839a48c95e24 Nb_sv/POTCAR          
   COPYR  = (c) Copyright 25May2007 Georg Kresse                                                    
   COPYR  = This file is part of the software VASP. Any use, copying, and all other rights are regul
   COPYR  = If you do not have a valid VASP license, you may not use, copy or distribute this file. 
   VRHFIN =Nb: 4p5s4d                                                                               
   LEXCH  = PE                                                                                      
   EATOM  =  1555.1913 eV,  114.3033 Ry                                                             
                                                                                                    
   TITEL  = PAW_PBE Nb_sv 25May2007                                                                 
   LULTRA =        F    use ultrasoft PP ?                                                          
   IUNSCR =        1    unscreen: 0-lin 1-nonlin 2-no                                               
   RPACOR =    1.800    partial core radius                                                         
   POMASS =   92.910; ZVAL   =   13.000    mass and valenz                                          
   RCORE  =    2.400    outmost cutoff radius                                                       
   RWIGS  =    2.400; RWIGS  =    1.270    wigner-seitz radius (au A)                               
   ENMAX  =  293.235; ENMIN  =  219.927 eV                                                          
   ICORE  =        3    local potential                                                             
   LCOR   =        T    correct aug charges                                                         
   LPAW   =        T    paw PP                                                                      
   EAUG   =  455.659                                                                                
   DEXC   =    0.000                                                                                
   RMAX   =    2.456    core radius for proj-oper                                                   
   RAUG   =    1.300    factor for augmentation sphere                                              
   RDEP   =    2.451    radius for radial grids                                                     
   RDEPT  =    1.956    core radius for aug-charge                                                  
                                                                                                    
   Atomic configuration                                                                             
   11 entries                                                                                       
     n  l   j            E        occ.                                                              
     1  0  0.50    -18805.2457   2.0000                                                             
     2  0  0.50     -2630.2869   2.0000                                                             
     2  1  1.50     -2348.4046   6.0000                                                             
     3  0  0.50      -438.8757   2.0000                                                             
     3  1  1.50      -346.7588   6.0000                                                             
     3  2  2.50      -196.2560  10.0000                                                             
     4  0  0.50       -58.3859   2.0000                                                             
     5  0  0.50        -3.9816   1.0000                                                             
     4  1  1.50       -34.5141   6.0000                                                             
     4  2  2.50        -3.0408   4.0000                                                             
     4  3  2.50        -1.3606   0.0000                                                             
   Description                                                                                      
     l       E           TYP  RCUT    TYP  RCUT                                                     
     0    -58.3859094     23  2.200                                                                 
     0     -3.9816262     23  2.200                                                                 
     1    -34.5140738     23  2.200                                                                 
     1     13.6058260     23  2.200                                                                 
     2     -3.0408010     23  2.200                                                                 
     2     -0.1283038     23  2.200                                                                 
     3     -1.3605826     23  2.400                                                                 
  local pseudopotential read in
  partial core-charges read in
  partial kinetic energy density read in
  atomic valenz-charges read in
  non local Contribution for L=           0  read in
    real space projection operators read in
  non local Contribution for L=           0  read in
    real space projection operators read in
  non local Contribution for L=           1  read in
    real space projection operators read in
  non local Contribution for L=           1  read in
    real space projection operators read in
  non local Contribution for L=           2  read in
    real space projection operators read in
  non local Contribution for L=           2  read in
    real space projection operators read in
    PAW grid and wavefunctions read in
 
   number of l-projection  operators is LMAX  =           6
   number of lm-projection operators is LMMAX =          18
 
 POTCAR:    PAW_PBE Mo_sv 02Feb2006               
   SHA256 =  2731df97e41766cc617548c5a8267718fdef1f509ac6bafa01e745abea2bdfaa Mo_sv/POTCAR          
   COPYR  = (c) Copyright 02Feb2006 Georg Kresse                                                    
   COPYR  = This file is part of the software VASP. Any use, copying, and all other rights are regul
   COPYR  = If you do not have a valid VASP license, you may not use, copy or distribute this file. 
   VRHFIN =Mo: 4p5s4d                                                                               
   LEXCH  = PE                                                                                      
   EATOM  =  1862.2866 eV,  136.8742 Ry                                                             
                                                                                                    
   TITEL  = PAW_PBE Mo_sv 02Feb2006                                                                 
   LULTRA =        F    use ultrasoft PP ?                                                          
   IUNSCR =        1    unscreen: 0-lin 1-nonlin 2-no                                               
   RPACOR =    2.200    partial core radius                                                         
   POMASS =   95.940; ZVAL   =   14.000    mass and valenz                                          
   RCORE  =    2.500    outmost cutoff radius                                                       
   RWIGS  =    2.750; RWIGS  =    1.455    wigner-seitz radius (au A)                               
   ENMAX  =  242.676; ENMIN  =  182.007 eV                                                          
   ICORE  =        3    local potential                                                             
   LCOR   =        T    correct aug charges                                                         
   LPAW   =        T    paw PP                                                                      
   EAUG   =  446.014                                                                                
   DEXC   =    0.000                                                                                
   RMAX   =    2.563    core radius for proj-oper                                                   
   RAUG   =    1.300    factor for augmentation sphere                                              
   RDEP   =    2.641    radius for radial grids                                                     
   RDEPT  =    2.031    core radius for aug-charge                                                  
                                                                                                    
   Atomic configuration                                                                             
   11 entries                                                                                       
     n  l   j            E        occ.                                                              
     1  0  0.50    -19819.0341   2.0000                                                             
     2  0  0.50     -2799.0127   2.0000                                                             
     2  1  1.50     -2502.0276   6.0000                                                             
     3  0  0.50      -476.4449   2.0000                                                             
     3  1  1.50      -379.1496   6.0000                                                             
     3  2  2.50      -220.9367  10.0000                                                             
     4  0  0.50       -64.3378   2.0000                                                             
     5  0  0.50        -4.0862   1.0000                                                             
     4  1  1.50       -38.4773   6.0000                                                             
     4  2  2.50        -3.7535   5.0000                                                             
     4  3  2.50        -1.3606   0.0000                                                             
   Description                                                                                      
     l       E           TYP  RCUT    TYP  RCUT                                                     
     0    -64.3377829     23  2.100                                                                 
     0     -4.0861640     23  2.400                                                                 
     1    -38.4772993     23  2.100                                                                 
     1     13.6058260     23  2.100                                                                 
     2     -3.7534941     23  2.400                                                                 
     2     -5.1140767     23  2.400                                                                 
     3     -4.0817478     23  2.500                                                                 
  local pseudopotential read in
  partial core-charges read in
  partial kinetic energy density read in
  atomic valenz-charges read in
  non local Contribution for L=           0  read in
    real space projection operators read in
  non local Contribution for L=           0  read in
    real space projection operators read in
  non local Contribution for L=           1  read in
    real space projection operators read in
  non local Contribution for L=           1  read in
    real space projection operators read in
  non local Contribution for L=           2  read in
    real space projection operators read in
  non local Contribution for L=           2  read in
    real space projection operators read in
    PAW grid and wavefunctions read in
 
   number of l-projection  operators is LMAX  =           6
   number of lm-projection operators is LMMAX =          18
 
 POTCAR:    PAW_PBE Ta_pv 07Sep2000               
   SHA256 =  00d0a14a36c127416459414afb8617d9754996fffa60a2465888e660b20a452f Ta_pv/POTCAR          
   COPYR  = (c) Copyright 07Sep2000 Georg Kresse                                                    
   COPYR  = This file is part of the software VASP. Any use, copying, and all other rights are regul
   COPYR  = If you do not have a valid VASP license, you may not use, copy or distribute this file. 
   VRHFIN =Ta:  5p6s5d                                                                              
   LEXCH  = PE                                                                                      
   EATOM  =  1047.1984 eV,   76.9669 Ry                                                             
                                                                                                    
   TITEL  = PAW_PBE Ta_pv 07Sep2000                                                                 
   LULTRA =        F    use ultrasoft PP ?                                                          
   IUNSCR =        1    unscreen: 0-lin 1-nonlin 2-no                                               
   RPACOR =    2.330    partial core radius                                                         
   POMASS =  180.948; ZVAL   =   11.000    mass and valenz                                          
   RCORE  =    2.500    outmost cutoff radius                                                       
   RWIGS  =    2.840; RWIGS  =    1.503    wigner-seitz radius (au A)                               
   ENMAX  =  223.667; ENMIN  =  167.750 eV                                                          
   RCLOC  =    2.205    cutoff for local pot                                                        
   LCOR   =        T    correct aug charges                                                         
   LPAW   =        T    paw PP                                                                      
   EAUG   =  377.421                                                                                
   DEXC   =    0.000                                                                                
   RMAX   =    2.551    core radius for proj-oper                                                   
   RAUG   =    1.300    factor for augmentation sphere                                              
   RDEP   =    2.526    radius for radial grids                                                     
   RDEPT  =    2.132    core radius for aug-charge                                                  
                                                                                                    
   Atomic configuration                                                                             
   15 entries                                                                                       
     n  l   j            E        occ.                                                              
     1  0  0.50    -67341.2801   2.0000                                                             
     2  0  0.50    -11566.9369   2.0000                                                             
     2  1  1.50    -10134.1175   6.0000                                                             
     3  0  0.50     -2648.5614   2.0000                                                             
     3  1  1.50     -2222.6006   6.0000                                                             
     3  2  2.50     -1726.3114  10.0000                                                             
     4  0  0.50      -538.6957   2.0000                                                             
     4  1  1.50      -399.0125   6.0000                                                             
     4  2  2.50      -220.3955  10.0000                                                             
     4  3  3.50       -23.0371  14.0000                                                             
     5  0  0.50       -71.2900   2.0000                                                             
     5  1  1.50       -37.8224   6.0000                                                             
     5  2  2.50        -2.6455   4.0000                                                             
     6  0  0.50        -4.9623   1.0000                                                             
     5  3  2.50        -1.3606   0.0000                                                             
   Description                                                                                      
     l       E           TYP  RCUT    TYP  RCUT                                                     
     1    -37.8224449     23  2.500                                                                 
     1      1.3605826     23  2.500                                                                 
     2     -2.6454718     23  2.500                                                                 
     2     -0.6258570     23  2.500                                                                 
     0     -4.9622674     23  2.500                                                                 
     0      4.7531427     23  2.500                                                                 
  local pseudopotential read in
  partial core-charges read in
  partial kinetic energy density read in
  atomic valenz-charges read in
  non local Contribution for L=           1  read in
    real space projection operators read in
  non local Contribution for L=           1  read in
    real space projection operators read in
  non local Contribution for L=           2  read in
    real space projection operators read in
  non local Contribution for L=           2  read in
    real space projection operators read in
  non local Contribution for L=           0  read in
    real space projection operators read in
  non local Contribution for L=           0  read in
    real space projection operators read in
    PAW grid and wavefunctions read in
 
   number of l-projection  operators is LMAX  =           6
   number of lm-projection operators is LMMAX =          18
 
 POTCAR:    PAW_PBE W_sv 04Sep2015                
   SHA256 =  931c2d770f65867ef30f3db3421922900fc0890ebac5c3e12f63b6a2064023d7 W_sv/POTCAR           
   COPYR  = (c) Copyright 04Sep2015 Georg Kresse                                                    
   COPYR  = This file is part of the software VASP. Any use, copying, and all other rights are regul
   COPYR  = If you do not have a valid VASP license, you may not use, copy or distribute this file. 
   VRHFIN =W : 5p6s5d                                                                               
   LEXCH  = PE                                                                                      
   EATOM  =  1865.5791 eV,  137.1162 Ry                                                             
                                                                                                    
   TITEL  = PAW_PBE W_sv 04Sep2015                                                                  
   LULTRA =        F    use ultrasoft PP ?                                                          
   IUNSCR =        1    unscreen: 0-lin 1-nonlin 2-no                                               
   RPACOR =    2.330    partial core radius                                                         
   POMASS =  183.850; ZVAL   =   14.000    mass and valenz                                          
   RCORE  =    2.500    outmost cutoff radius                                                       
   RWIGS  =    2.750; RWIGS  =    1.455    wigner-seitz radius (au A)                               
   ENMAX  =  223.057; ENMIN  =  167.293 eV                                                          
   ICORE  =        3    local potential                                                             
   LCOR   =        T    correct aug charges                                                         
   LPAW   =        T    paw PP                                                                      
   EAUG   =  373.438                                                                                
   DEXC   =    0.000                                                                                
   RMAX   =    2.565    core radius for proj-oper                                                   
   RAUG   =    1.300    factor for augmentation sphere                                              
   RDEP   =    2.539    radius for radial grids                                                     
   RDEPT  =    2.126    core radius for aug-charge                                                  
                                                                                                    
   Atomic configuration                                                                             
   15 entries                                                                                       
     n  l   j            E        occ.                                                              
     1  0  0.50    -69465.5834   2.0000                                                             
     2  0  0.50    -11986.2640   2.0000                                                             
     2  1  1.50    -10479.8613   6.0000                                                             
     3  0  0.50     -2759.0756   2.0000                                                             
     3  1  1.50     -2313.1855   6.0000                                                             
     3  2  2.50     -1801.1183  10.0000                                                             
     4  0  0.50      -567.6789   2.0000                                                             
     4  1  1.50      -421.4692   6.0000                                                             
     4  2  2.50      -236.3471  10.0000                                                             
     4  3  3.50       -31.2665  14.0000                                                             
     5  0  0.50       -77.1084   2.0000                                                             
     6  0  0.50        -5.1438   1.0000                                                             
     5  1  1.50       -41.3856   6.0000                                                             
     5  2  2.50        -3.3185   5.0000                                                             
     5  3  2.50        -1.3606   0.0000                                                             
   Description                                                                                      
     l       E           TYP  RCUT    TYP  RCUT                                                     
     0    -77.1084470     23  2.100                                                                 
     0     -5.1437956     23  2.300                                                                 
     1    -41.3855615     23  2.500                                                                 
     1     -2.7211652     23  2.500                                                                 
     2     -3.3185025     23  2.500                                                                 
     2     -1.5965151     23  2.500                                                                 
     3     -1.3605826     23  2.500                                                                 
  local pseudopotential read in
  partial core-charges read in
  partial kinetic energy density read in
  kinetic energy density of atom read in
  atomic valenz-charges read in
  non local Contribution for L=           0  read in
    real space projection operators read in
  non local Contribution for L=           0  read in
    real space projection operators read in
  non local Contribution for L=           1  read in
    real space projection operators read in
  non local Contribution for L=           1  read in
    real space projection operators read in
  non local Contribution for L=           2  read in
    real space projection operators read in
  non local Contribution for L=           2  read in
    real space projection operators read in
    PAW grid and wavefunctions read in
 
   number of l-projection  operators is LMAX  =           6
   number of lm-projection operators is LMMAX =          18
 
  PAW_PBE Nb_sv 25May2007               :
 energy of atom  1       EATOM=-1555.1913
 kinetic energy error for atom=    0.2155 (will be added to EATOM!!)
  PAW_PBE Mo_sv 02Feb2006               :
 energy of atom  2       EATOM=-1862.2866
 kinetic energy error for atom=    0.1102 (will be added to EATOM!!)
  PAW_PBE Ta_pv 07Sep2000               :
 energy of atom  3       EATOM=-1047.1984
 kinetic energy error for atom=    0.0394 (will be added to EATOM!!)
  PAW_PBE W_sv 04Sep2015                :
 energy of atom  4       EATOM=-1865.5791
 kinetic energy error for atom=    0.0589 (will be added to EATOM!!)
 
 
 POSCAR: Nb-Mo-Ta-W alloy
  positions in direct lattice
  No initial velocities read in
 exchange correlation table for  LEXCH =        8
   RHO(1)=    0.500       N(1)  =     2000
   RHO(2)=  100.500       N(2)  =     4000
 


--------------------------------------------------------------------------------------------------------


 ion  position               nearest neighbor table
   1  0.250  0.250  0.750-   4 2.85   6 2.85   7 2.85   8 2.85   9 2.85  10 2.85  13 2.85  15 2.85
                            14 3.29  14 3.29
   2  0.750  0.750  0.250-   4 2.85   6 2.85   7 2.85   8 2.85   9 2.85  10 2.85  13 2.85  15 2.85
                            12 3.29  12 3.29
   3  0.250  0.750  0.750-   4 2.85   6 2.85   7 2.85   8 2.85   9 2.85  10 2.85  13 2.85  15 2.85
                            12 3.29  12 3.29
   4  0.500  0.000  0.000-   1 2.85   2 2.85   3 2.85   5 2.85  11 2.85  12 2.85  14 2.85  16 2.85
                             7 3.29   9 3.29   6 3.29   7 3.29   9 3.29   6 3.29
   5  0.250  0.250  0.250-   4 2.85   6 2.85   7 2.85   8 2.85   9 2.85  10 2.85  13 2.85  15 2.85
                            11 3.29  12 3.29  12 3.29  11 3.29
   6  0.000  0.000  0.000-   1 2.85   2 2.85   3 2.85   5 2.85  11 2.85  12 2.85  14 2.85  16 2.85
                             4 3.29  15 3.29  13 3.29  15 3.29  13 3.29   4 3.29
   7  0.500  0.000  0.500-   1 2.85   2 2.85   3 2.85   5 2.85  11 2.85  12 2.85  14 2.85  16 2.85
                             4 3.29  15 3.29  10 3.29   4 3.29  10 3.29  15 3.29
   8  0.000  0.500  0.500-   1 2.85   2 2.85   3 2.85   5 2.85  11 2.85  12 2.85  14 2.85  16 2.85
                            10 3.29  15 3.29  13 3.29  13 3.29  15 3.29  10 3.29
   9  0.500  0.500  0.000-   1 2.85   2 2.85   3 2.85   5 2.85  11 2.85  12 2.85  14 2.85  16 2.85
                            13 3.29   4 3.29  10 3.29  10 3.29   4 3.29  13 3.29
  10  0.500  0.500  0.500-   1 2.85   2 2.85   3 2.85   5 2.85  11 2.85  12 2.85  14 2.85  16 2.85
                             8 3.29   9 3.29   7 3.29   9 3.29   7 3.29   8 3.29
  11  0.750  0.250  0.250-   4 2.85   6 2.85   7 2.85   8 2.85   9 2.85  10 2.85  13 2.85  15 2.85
                            14 3.29   5 3.29  14 3.29   5 3.29
  12  0.250  0.750  0.250-   4 2.85   6 2.85   7 2.85   8 2.85   9 2.85  10 2.85  13 2.85  15 2.85
                             2 3.29   5 3.29   3 3.29   3 3.29   5 3.29   2 3.29
  13  0.000  0.500  0.000-   1 2.85   2 2.85   3 2.85   5 2.85  11 2.85  12 2.85  14 2.85  16 2.85
                             8 3.29   9 3.29   6 3.29   8 3.29   6 3.29   9 3.29
  14  0.750  0.250  0.750-   4 2.85   6 2.85   7 2.85   8 2.85   9 2.85  10 2.85  13 2.85  15 2.85
                             1 3.29  11 3.29  16 3.29  11 3.29  16 3.29   1 3.29
  15  0.000  0.000  0.500-   1 2.85   2 2.85   3 2.85   5 2.85  11 2.85  12 2.85  14 2.85  16 2.85
                             7 3.29   8 3.29   6 3.29   6 3.29   8 3.29   7 3.29
  16  0.750  0.750  0.750-   4 2.85   6 2.85   7 2.85   8 2.85   9 2.85  10 2.85  13 2.85  15 2.85
                            14 3.29  14 3.29
 
  LATTYP: Found a simple cubic cell.
 ALAT       =     6.5800000000
  
  Lattice vectors:
  
 A1 = (   6.5800000000,   0.0000000000,   0.0000000000)
 A2 = (   0.0000000000,   6.5800000000,   0.0000000000)
 A3 = (   0.0000000000,   0.0000000000,   6.5800000000)


Analysis of symmetry for initial positions (statically):
=====================================================================
 Subroutine PRICEL returns:
 Original cell was already a primitive cell.
 

 Routine SETGRP: Setting up the symmetry group for a 
 simple cubic supercell.


 Subroutine GETGRP returns: Found  1 space group operations
 (whereof  1 operations were pure point group operations)
 out of a pool of 48 trial point group operations.


The static configuration has the point symmetry C_1 .


Analysis of symmetry for dynamics (positions and initial velocities):
=====================================================================
 Subroutine PRICEL returns:
 Original cell was already a primitive cell.
 

 Routine SETGRP: Setting up the symmetry group for a 
 simple cubic supercell.


 Subroutine GETGRP returns: Found  1 space group operations
 (whereof  1 operations were pure point group operations)
 out of a pool of 48 trial point group operations.


The dynamic configuration has the point symmetry C_1 .


 Subroutine INISYM returns: Found  1 space group operations
 (whereof  1 operations are pure point group operations),
 and found     1 'primitive' translations


----------------------------------------------------------------------------------------

                                     Primitive cell                                     

  volume of cell :     284.8903

  direct lattice vectors                    reciprocal lattice vectors
     6.580000000  0.000000000  0.000000000     0.151975684  0.000000000  0.000000000
     0.000000000  6.580000000  0.000000000     0.000000000  0.151975684  0.000000000
     0.000000000  0.000000000  6.580000000     0.000000000  0.000000000  0.151975684

  length of vectors
     6.580000000  6.580000000  6.580000000     0.151975684  0.151975684  0.151975684

  position of ions in fractional coordinates (direct lattice)
     0.250000000  0.250000000  0.750000000
     0.750000000  0.750000000  0.250000000
     0.250000000  0.750000000  0.750000000
     0.500000000  0.000000000  0.000000000
     0.250000000  0.250000000  0.250000000
     0.000000000  0.000000000  0.000000000
     0.500000000  0.000000000  0.500000000
     0.000000000  0.500000000  0.500000000
     0.500000000  0.500000000  0.000000000
     0.500000000  0.500000000  0.500000000
     0.750000000  0.250000000  0.250000000
     0.250000000  0.750000000  0.250000000
     0.000000000  0.500000000  0.000000000
     0.750000000  0.250000000  0.750000000
     0.000000000  0.000000000  0.500000000
     0.750000000  0.750000000  0.750000000

  ion indices of the primitive-cell ions
   primitive index   ion index
                 1           1
                 2           2
                 3           3
                 4           4
                 5           5
                 6           6
                 7           7
                 8           8
                 9           9
                10          10
                11          11
                12          12
                13          13
                14          14
                15          15
                16          16

----------------------------------------------------------------------------------------

 
 
 KPOINTS: K-Spacing Value to Generate K-Mesh: 0.03

Automatic generation of k-mesh.
 Grid dimensions read from file:
 generate k-points for:    5    5    5

 Generating k-lattice:

  Cartesian coordinates                     Fractional coordinates (reciprocal lattice)
     0.030395137  0.000000000  0.000000000     0.200000000  0.000000000  0.000000000
     0.000000000  0.030395137  0.000000000     0.000000000  0.200000000  0.000000000
     0.000000000  0.000000000  0.030395137     0.000000000  0.000000000  0.200000000

  Length of vectors
     0.030395137  0.030395137  0.030395137

  Shift w.r.t. Gamma in fractional coordinates (k-lattice)
     0.000000000  0.000000000  0.000000000

 
 Subroutine IBZKPT returns following result:
 ===========================================
 
 Found     63 irreducible k-points:
 
 Following reciprocal coordinates:
            Coordinates               Weight
  0.000000  0.000000  0.000000      1.000000
  0.200000  0.000000  0.000000      2.000000
  0.000000  0.200000  0.000000      2.000000
  0.000000  0.000000  0.200000      2.000000
  0.400000  0.000000  0.000000      2.000000
  0.000000  0.400000  0.000000      2.000000
  0.000000  0.000000  0.400000      2.000000
  0.200000  0.200000  0.000000      2.000000
  0.000000  0.200000  0.200000      2.000000
  0.200000  0.000000  0.200000      2.000000
 -0.200000  0.200000  0.000000      2.000000
 -0.200000  0.000000  0.200000      2.000000
  0.000000 -0.200000  0.200000      2.000000
  0.400000  0.200000  0.000000      2.000000
  0.000000  0.400000  0.200000      2.000000
  0.200000  0.000000  0.400000      2.000000
 -0.200000  0.400000  0.000000      2.000000
 -0.400000  0.000000  0.200000      2.000000
  0.000000  0.200000  0.400000      2.000000
  0.000000 -0.400000  0.200000      2.000000
 -0.200000  0.000000  0.400000      2.000000
  0.400000  0.000000  0.200000      2.000000
  0.000000 -0.200000  0.400000      2.000000
  0.400000 -0.200000  0.000000      2.000000
  0.200000  0.400000  0.000000      2.000000
  0.400000  0.400000  0.000000      2.000000
  0.000000  0.400000  0.400000      2.000000
  0.400000  0.000000  0.400000      2.000000
 -0.400000  0.400000  0.000000      2.000000
 -0.400000  0.000000  0.400000      2.000000
  0.000000 -0.400000  0.400000      2.000000
  0.200000  0.200000  0.200000      2.000000
 -0.200000  0.200000  0.200000      2.000000
 -0.200000 -0.200000  0.200000      2.000000
  0.200000 -0.200000  0.200000      2.000000
  0.400000  0.200000  0.200000      2.000000
  0.200000  0.400000  0.200000      2.000000
  0.200000  0.200000  0.400000      2.000000
 -0.200000  0.400000  0.200000      2.000000
 -0.400000  0.200000  0.200000      2.000000
 -0.200000  0.200000  0.400000      2.000000
 -0.400000 -0.200000  0.200000      2.000000
 -0.200000 -0.400000  0.200000      2.000000
 -0.200000 -0.200000  0.400000      2.000000
  0.200000 -0.400000  0.200000      2.000000
  0.400000 -0.200000  0.200000      2.000000
  0.200000 -0.200000  0.400000      2.000000
  0.400000  0.400000  0.200000      2.000000
  0.200000  0.400000  0.400000      2.000000
  0.400000  0.200000  0.400000      2.000000
 -0.400000  0.400000  0.200000      2.000000
 -0.400000  0.200000  0.400000      2.000000
 -0.200000  0.400000  0.400000      2.000000
 -0.400000 -0.400000  0.200000      2.000000
 -0.200000 -0.400000  0.400000      2.000000
 -0.400000 -0.200000  0.400000      2.000000
  0.400000 -0.400000  0.200000      2.000000
  0.400000 -0.200000  0.400000      2.000000
  0.200000 -0.400000  0.400000      2.000000
  0.400000  0.400000  0.400000      2.000000
 -0.400000  0.400000  0.400000      2.000000
 -0.400000 -0.400000  0.400000      2.000000
  0.400000 -0.400000  0.400000      2.000000
 
 Following cartesian coordinates:
            Coordinates               Weight
  0.000000  0.000000  0.000000      1.000000
  0.030395  0.000000  0.000000      2.000000
  0.000000  0.030395  0.000000      2.000000
  0.000000  0.000000  0.030395      2.000000
  0.060790  0.000000  0.000000      2.000000
  0.000000  0.060790  0.000000      2.000000
  0.000000  0.000000  0.060790      2.000000
  0.030395  0.030395  0.000000      2.000000
  0.000000  0.030395  0.030395      2.000000
  0.030395  0.000000  0.030395      2.000000
 -0.030395  0.030395  0.000000      2.000000
 -0.030395  0.000000  0.030395      2.000000
  0.000000 -0.030395  0.030395      2.000000
  0.060790  0.030395  0.000000      2.000000
  0.000000  0.060790  0.030395      2.000000
  0.030395  0.000000  0.060790      2.000000
 -0.030395  0.060790  0.000000      2.000000
 -0.060790  0.000000  0.030395      2.000000
  0.000000  0.030395  0.060790      2.000000
  0.000000 -0.060790  0.030395      2.000000
 -0.030395  0.000000  0.060790      2.000000
  0.060790  0.000000  0.030395      2.000000
  0.000000 -0.030395  0.060790      2.000000
  0.060790 -0.030395  0.000000      2.000000
  0.030395  0.060790  0.000000      2.000000
  0.060790  0.060790  0.000000      2.000000
  0.000000  0.060790  0.060790      2.000000
  0.060790  0.000000  0.060790      2.000000
 -0.060790  0.060790  0.000000      2.000000
 -0.060790  0.000000  0.060790      2.000000
  0.000000 -0.060790  0.060790      2.000000
  0.030395  0.030395  0.030395      2.000000
 -0.030395  0.030395  0.030395      2.000000
 -0.030395 -0.030395  0.030395      2.000000
  0.030395 -0.030395  0.030395      2.000000
  0.060790  0.030395  0.030395      2.000000
  0.030395  0.060790  0.030395      2.000000
  0.030395  0.030395  0.060790      2.000000
 -0.030395  0.060790  0.030395      2.000000
 -0.060790  0.030395  0.030395      2.000000
 -0.030395  0.030395  0.060790      2.000000
 -0.060790 -0.030395  0.030395      2.000000
 -0.030395 -0.060790  0.030395      2.000000
 -0.030395 -0.030395  0.060790      2.000000
  0.030395 -0.060790  0.030395      2.000000
  0.060790 -0.030395  0.030395      2.000000
  0.030395 -0.030395  0.060790      2.000000
  0.060790  0.060790  0.030395      2.000000
  0.030395  0.060790  0.060790      2.000000
  0.060790  0.030395  0.060790      2.000000
 -0.060790  0.060790  0.030395      2.000000
 -0.060790  0.030395  0.060790      2.000000
 -0.030395  0.060790  0.060790      2.000000
 -0.060790 -0.060790  0.030395      2.000000
 -0.030395 -0.060790  0.060790      2.000000
 -0.060790 -0.030395  0.060790      2.000000
  0.060790 -0.060790  0.030395      2.000000
  0.060790 -0.030395  0.060790      2.000000
  0.030395 -0.060790  0.060790      2.000000
  0.060790  0.060790  0.060790      2.000000
 -0.060790  0.060790  0.060790      2.000000
 -0.060790 -0.060790  0.060790      2.000000
  0.060790 -0.060790  0.060790      2.000000
 


--------------------------------------------------------------------------------------------------------




 Dimension of arrays:
   k-points           NKPTS =     63   k-points in BZ     NKDIM =     63   number of bands    NBANDS=    128
   number of dos      NEDOS =    301   number of ions     NIONS =     16
   non local maximal  LDIM  =      6   non local SUM 2l+1 LMDIM =     18
   total plane-waves  NPLWV =  46656
   max r-space proj   IRMAX =      1   max aug-charges    IRDMAX=   9546
   dimension x,y,z NGX =    36 NGY =   36 NGZ =   36
   dimension x,y,z NGXF=    72 NGYF=   72 NGZF=   72
   support grid    NGXF=    72 NGYF=   72 NGZF=   72
   ions per type =               3   8   3   2
   NGX,Y,Z   is equivalent  to a cutoff of   9.10,  9.10,  9.10 a.u.
   NGXF,Y,Z  is equivalent  to a cutoff of  18.19, 18.19, 18.19 a.u.

 SYSTEM =  unknown system                          
 POSCAR =  Nb-Mo-Ta-W alloy                        

 Startparameter for this run:
   NWRITE =      2    write-flag & timer
   PREC   = accura    normal or accurate (medium, high low for compatibility)
   ISTART =      0    job   : 0-new  1-cont  2-samecut
   ICHARG =      2    charge: 1-file 2-atom 10-const
   ISPIN  =      1    spin polarized calculation?
   LNONCOLLINEAR =      F non collinear calculations
   LSORBIT =      F    spin-orbit coupling
   INIWAV =      1    electr: 0-lowe 1-rand  2-diag
   LASPH  =      F    aspherical Exc in radial PAW
 Electronic Relaxation 1
   ENCUT  =  250.0 eV  18.37 Ry    4.29 a.u.   8.48  8.48  8.48*2*pi/ulx,y,z
   ENINI  =  250.0     initial cutoff
   ENAUG  =  455.7 eV  augmentation charge cutoff
   NELM   =     80;   NELMIN=  2; NELMDL= -5     # of ELM steps 
   EDIFF  = 0.1E-07   stopping-criterion for ELM
   LREAL  =      F    real-space projection
   NLSPLINE    = F    spline interpolate recip. space projectors
   LCOMPAT=      F    compatible to vasp.4.4
   GGA_COMPAT  = T    GGA compatible to vasp.4.4-vasp.4.6
   LMAXPAW     = -100 max onsite density
   LMAXMIX     =    2 max onsite mixed and CHGCAR
   VOSKOWN=      0    Vosko Wilk Nusair interpolation
   ROPT   =    0.00000   0.00000   0.00000   0.00000
 Ionic relaxation
   EDIFFG = -.1E-01   stopping-criterion for IOM
   NSW    =      0    number of steps for IOM
   NBLOCK =      1;   KBLOCK =      1    inner block; outer block 
   IBRION =     -1    ionic relax: 0-MD 1-quasi-New 2-CG
   NFREE  =      0    steps in history (QN), initial steepest desc. (CG)
   ISIF   =      2    stress and relaxation
   IWAVPR =     10    prediction:  0-non 1-charg 2-wave 3-comb
   ISYM   =      2    0-nonsym 1-usesym 2-fastsym
   LCORR  =      T    Harris-Foulkes like correction to forces

   POTIM  = 0.5000    time-step for ionic-motion
   TEIN   =    0.0    initial temperature
   TEBEG  =    0.0;   TEEND  =   0.0 temperature during run
   SMASS  =  -3.00    Nose mass-parameter (am)
   estimated Nose-frequenzy (Omega)   =  0.10E-29 period in steps = 0.13E+47 mass=  -0.989E-27a.u.
   SCALEE = 1.0000    scale energy and forces
   NPACO  =    256;   APACO  = 10.0  distance and # of slots for P.C.
   PSTRESS=    0.0 pullay stress

  Mass of Ions in am
   POMASS =  92.91 95.94180.95183.85
  Ionic Valenz
   ZVAL   =  13.00 14.00 11.00 14.00
  Atomic Wigner-Seitz radii
   RWIGS  =  -1.00 -1.00 -1.00 -1.00
  virtual crystal weights 
   VCA    =   1.00  1.00  1.00  1.00
   NELECT =     212.0000    total number of electrons
   NUPDOWN=      -1.0000    fix difference up-down

 DOS related values:
   EMIN   =  10.00;   EMAX   =-10.00  energy-range for DOS
   EFERMI =   0.00
   ISMEAR =     0;   SIGMA  =   0.02  broadening in eV -4-tet -1-fermi 0-gaus

 Electronic relaxation 2 (details)
   IALGO  =     38    algorithm
   LDIAG  =      T    sub-space diagonalisation (order eigenvalues)
   LSUBROT=      F    optimize rotation matrix (better conditioning)
   TURBO    =      0    0=normal 1=particle mesh
   IRESTART =      0    0=no restart 2=restart with 2 vectors
   NREBOOT  =      0    no. of reboots
   NMIN     =      0    reboot dimension
   EREF     =   0.00    reference energy to select bands
   IMIX   =      4    mixing-type and parameters
     AMIX     =   0.40;   BMIX     =  1.00
     AMIX_MAG =   1.60;   BMIX_MAG =  1.00
     AMIN     =   0.10
     WC   =   100.;   INIMIX=   1;  MIXPRE=   1;  MAXMIX= -45

 Intra band minimization:
   WEIMIN = 0.0000     energy-eigenvalue tresh-hold
   EBREAK =  0.20E-10  absolut break condition
   DEPER  =   0.30     relativ break condition  

   TIME   =   0.40     timestep for ELM

  volume/ion in A,a.u.               =      17.81       120.16
  Fermi-wavevector in a.u.,A,eV,Ry     =   1.483523  2.803452 29.944245  2.200840
  Thomas-Fermi vector in A             =   2.597174
 
 Write flags
   LWAVE        =      F    write WAVECAR
   LDOWNSAMPLE  =      F    k-point downsampling of WAVECAR
   LCHARG       =      F    write CHGCAR
   LVTOT        =      F    write LOCPOT, total local potential
   LVHAR        =      F    write LOCPOT, Hartree potential only
   LELF         =      F    write electronic localiz. function (ELF)
   LORBIT       =      0    0 simple, 1 ext, 2 COOP (PROOUT), +10 PAW based schemes


 Dipole corrections
   LMONO  =      F    monopole corrections only (constant potential shift)
   LDIPOL =      F    correct potential (dipole corrections)
   IDIPOL =      0    1-x, 2-y, 3-z, 4-all directions 
   EPSILON=  1.0000000 bulk dielectric constant

 Core level calculations are selected ICORELEVEL =  1
 Exchange correlation treatment:
   GGA     =    PE    GGA type
   LEXCH   =     8    internal setting for exchange type
   LIBXC   =     F    Libxc                    
   VOSKOWN =     0    Vosko Wilk Nusair interpolation
   LHFCALC =     F    Hartree Fock is set to
   LHFONE  =     F    Hartree Fock one center treatment
   AEXX    =    0.0000 exact exchange contribution

 Linear response parameters
   LEPSILON=     F    determine dielectric tensor
   LRPA    =     F    only Hartree local field effects (RPA)
   LNABLA  =     F    use nabla operator in PAW spheres
   LVEL    =     F    velocity operator in full k-point grid
   CSHIFT  =0.1000    complex shift for real part using Kramers Kronig
   OMEGAMAX=  -1.0    maximum frequency
   DEG_THRESHOLD= 0.2000000E-02 threshold for treating states as degnerate
   RTIME   =   -0.100 relaxation time in fs
  (WPLASMAI=    0.000 imaginary part of plasma frequency in eV, 0.658/RTIME)
   DFIELD  = 0.0000000 0.0000000 0.0000000 field for delta impulse in time
 
  Optional k-point grid parameters
   LKPOINTS_OPT  =     F    use optional k-point grid
   KPOINTS_OPT_MODE=     1    mode for optional k-point grid
 
 Orbital magnetization related:
   ORBITALMAG=     F  switch on orbital magnetization
   LCHIMAG   =     F  perturbation theory with respect to B field
   DQ        =  0.001000  dq finite difference perturbation B field
   LLRAUG    =     F  two centre corrections for induced B field



--------------------------------------------------------------------------------------------------------


 Static calculation
 charge density and potential will be updated during run
 non-spin polarized calculation
 Variant of blocked Davidson
 Davidson routine will perform the subspace rotation
 perform sub-space diagonalisation
    after iterative eigenvector-optimisation
 modified Broyden-mixing scheme, WC =      100.0
 initial mixing is a Kerker type mixing with AMIX =  0.4000 and BMIX =      1.0000
 Hartree-type preconditioning will be used
 using additional bands           22
 reciprocal scheme for non local part
 use partial core corrections
 calculate Harris-corrections to forces 
   (improved forces if not selfconsistent)
 use gradient corrections 
 use of overlap-Matrix (Vanderbilt PP)
 Gauss-broadening in eV      SIGMA  =   0.02


--------------------------------------------------------------------------------------------------------


  energy-cutoff  :      250.00
  volume of cell :      284.89
      direct lattice vectors                 reciprocal lattice vectors
     6.580000000  0.000000000  0.000000000     0.151975684  0.000000000  0.000000000
     0.000000000  6.580000000  0.000000000     0.000000000  0.151975684  0.000000000
     0.000000000  0.000000000  6.580000000     0.000000000  0.000000000  0.151975684

  length of vectors
     6.580000000  6.580000000  6.580000000     0.151975684  0.151975684  0.151975684


 
 k-points in units of 2pi/SCALE and weight: K-Spacing Value to Generate K-Mesh: 0.03
   0.00000000  0.00000000  0.00000000       0.008
   0.03039514  0.00000000  0.00000000       0.016
   0.00000000  0.03039514  0.00000000       0.016
   0.00000000  0.00000000  0.03039514       0.016
   0.06079027  0.00000000  0.00000000       0.016
   0.00000000  0.06079027  0.00000000       0.016
   0.00000000  0.00000000  0.06079027       0.016
   0.03039514  0.03039514  0.00000000       0.016
   0.00000000  0.03039514  0.03039514       0.016
   0.03039514  0.00000000  0.03039514       0.016
  -0.03039514  0.03039514  0.00000000       0.016
  -0.03039514  0.00000000  0.03039514       0.016
   0.00000000 -0.03039514  0.03039514       0.016
   0.06079027  0.03039514  0.00000000       0.016
   0.00000000  0.06079027  0.03039514       0.016
   0.03039514  0.00000000  0.06079027       0.016
  -0.03039514  0.06079027  0.00000000       0.016
  -0.06079027  0.00000000  0.03039514       0.016
   0.00000000  0.03039514  0.06079027       0.016
   0.00000000 -0.06079027  0.03039514       0.016
  -0.03039514  0.00000000  0.06079027       0.016
   0.06079027  0.00000000  0.03039514       0.016
   0.00000000 -0.03039514  0.06079027       0.016
   0.06079027 -0.03039514  0.00000000       0.016
   0.03039514  0.06079027  0.00000000       0.016
   0.06079027  0.06079027  0.00000000       0.016
   0.00000000  0.06079027  0.06079027       0.016
   0.06079027  0.00000000  0.06079027       0.016
  -0.06079027  0.06079027  0.00000000       0.016
  -0.06079027  0.00000000  0.06079027       0.016
   0.00000000 -0.06079027  0.06079027       0.016
   0.03039514  0.03039514  0.03039514       0.016
  -0.03039514  0.03039514  0.03039514       0.016
  -0.03039514 -0.03039514  0.03039514       0.016
   0.03039514 -0.03039514  0.03039514       0.016
   0.06079027  0.03039514  0.03039514       0.016
   0.03039514  0.06079027  0.03039514       0.016
   0.03039514  0.03039514  0.06079027       0.016
  -0.03039514  0.06079027  0.03039514       0.016
  -0.06079027  0.03039514  0.03039514       0.016
  -0.03039514  0.03039514  0.06079027       0.016
  -0.06079027 -0.03039514  0.03039514       0.016
  -0.03039514 -0.06079027  0.03039514       0.016
  -0.03039514 -0.03039514  0.06079027       0.016
   0.03039514 -0.06079027  0.03039514       0.016
   0.06079027 -0.03039514  0.03039514       0.016
   0.03039514 -0.03039514  0.06079027       0.016
   0.06079027  0.06079027  0.03039514       0.016
   0.03039514  0.06079027  0.06079027       0.016
   0.06079027  0.03039514  0.06079027       0.016
  -0.06079027  0.06079027  0.03039514       0.016
  -0.06079027  0.03039514  0.06079027       0.016
  -0.03039514  0.06079027  0.06079027       0.016
  -0.06079027 -0.06079027  0.03039514       0.016
  -0.03039514 -0.06079027  0.06079027       0.016
  -0.06079027 -0.03039514  0.06079027       0.016
   0.06079027 -0.06079027  0.03039514       0.016
   0.06079027 -0.03039514  0.06079027       0.016
   0.03039514 -0.06079027  0.06079027       0.016
   0.06079027  0.06079027  0.06079027       0.016
  -0.06079027  0.06079027  0.06079027       0.016
  -0.06079027 -0.06079027  0.06079027       0.016
   0.06079027 -0.06079027  0.06079027       0.016
 
 k-points in reciprocal lattice and weights: K-Spacing Value to Generate K-Mesh: 0.03
   0.00000000  0.00000000  0.00000000       0.008
   0.20000000  0.00000000  0.00000000       0.016
   0.00000000  0.20000000  0.00000000       0.016
   0.00000000  0.00000000  0.20000000       0.016
   0.40000000  0.00000000  0.00000000       0.016
   0.00000000  0.40000000  0.00000000       0.016
   0.00000000  0.00000000  0.40000000       0.016
   0.20000000  0.20000000  0.00000000       0.016
   0.00000000  0.20000000  0.20000000       0.016
   0.20000000  0.00000000  0.20000000       0.016
  -0.20000000  0.20000000  0.00000000       0.016
  -0.20000000  0.00000000  0.20000000       0.016
   0.00000000 -0.20000000  0.20000000       0.016
   0.40000000  0.20000000  0.00000000       0.016
   0.00000000  0.40000000  0.20000000       0.016
   0.20000000  0.00000000  0.40000000       0.016
  -0.20000000  0.40000000  0.00000000       0.016
  -0.40000000  0.00000000  0.20000000       0.016
   0.00000000  0.20000000  0.40000000       0.016
   0.00000000 -0.40000000  0.20000000       0.016
  -0.20000000  0.00000000  0.40000000       0.016
   0.40000000  0.00000000  0.20000000       0.016
   0.00000000 -0.20000000  0.40000000       0.016
   0.40000000 -0.20000000  0.00000000       0.016
   0.20000000  0.40000000  0.00000000       0.016
   0.40000000  0.40000000  0.00000000       0.016
   0.00000000  0.40000000  0.40000000       0.016
   0.40000000  0.00000000  0.40000000       0.016
  -0.40000000  0.40000000  0.00000000       0.016
  -0.40000000  0.00000000  0.40000000       0.016
   0.00000000 -0.40000000  0.40000000       0.016
   0.20000000  0.20000000  0.20000000       0.016
  -0.20000000  0.20000000  0.20000000       0.016
  -0.20000000 -0.20000000  0.20000000       0.016
   0.20000000 -0.20000000  0.20000000       0.016
   0.40000000  0.20000000  0.20000000       0.016
   0.20000000  0.40000000  0.20000000       0.016
   0.20000000  0.20000000  0.40000000       0.016
  -0.20000000  0.40000000  0.20000000       0.016
  -0.40000000  0.20000000  0.20000000       0.016
  -0.20000000  0.20000000  0.40000000       0.016
  -0.40000000 -0.20000000  0.20000000       0.016
  -0.20000000 -0.40000000  0.20000000       0.016
  -0.20000000 -0.20000000  0.40000000       0.016
   0.20000000 -0.40000000  0.20000000       0.016
   0.40000000 -0.20000000  0.20000000       0.016
   0.20000000 -0.20000000  0.40000000       0.016
   0.40000000  0.40000000  0.20000000       0.016
   0.20000000  0.40000000  0.40000000       0.016
   0.40000000  0.20000000  0.40000000       0.016
  -0.40000000  0.40000000  0.20000000       0.016
  -0.40000000  0.20000000  0.40000000       0.016
  -0.20000000  0.40000000  0.40000000       0.016
  -0.40000000 -0.40000000  0.20000000       0.016
  -0.20000000 -0.40000000  0.40000000       0.016
  -0.40000000 -0.20000000  0.40000000       0.016
   0.40000000 -0.40000000  0.20000000       0.016
   0.40000000 -0.20000000  0.40000000       0.016
   0.20000000 -0.40000000  0.40000000       0.016
   0.40000000  0.40000000  0.40000000       0.016
  -0.40000000  0.40000000  0.40000000       0.016
  -0.40000000 -0.40000000  0.40000000       0.016
   0.40000000 -0.40000000  0.40000000       0.016
 
 position of ions in fractional coordinates (direct lattice) 
   0.25000000  0.25000000  0.75000000
   0.75000000  0.75000000  0.25000000
   0.25000000  0.75000000  0.75000000
   0.50000000  0.00000000  0.00000000
   0.25000000  0.25000000  0.25000000
   0.00000000  0.00000000  0.00000000
   0.50000000  0.00000000  0.50000000
   0.00000000  0.50000000  0.50000000
   0.50000000  0.50000000  0.00000000
   0.50000000  0.50000000  0.50000000
   0.75000000  0.25000000  0.25000000
   0.25000000  0.75000000  0.25000000
   0.00000000  0.50000000  0.00000000
   0.75000000  0.25000000  0.75000000
   0.00000000  0.00000000  0.50000000
   0.75000000  0.75000000  0.75000000
 
 position of ions in cartesian coordinates  (Angst):
   1.64500000  1.64500000  4.93500000
   4.93500000  4.93500000  1.64500000
   1.64500000  4.93500000  4.93500000
   3.29000000  0.00000000  0.00000000
   1.64500000  1.64500000  1.64500000
   0.00000000  0.00000000  0.00000000
   3.29000000  0.00000000  3.29000000
   0.00000000  3.29000000  3.29000000
   3.29000000  3.29000000  0.00000000
   3.29000000  3.29000000  3.29000000
   4.93500000  1.64500000  1.64500000
   1.64500000  4.93500000  1.64500000
   0.00000000  3.29000000  0.00000000
   4.93500000  1.64500000  4.93500000
   0.00000000  0.00000000  3.29000000
   4.93500000  4.93500000  4.93500000
 


--------------------------------------------------------------------------------------------------------


 k-point   1 :   0.0000 0.0000 0.0000  plane waves:    2517
 k-point   2 :   0.2000 0.0000 0.0000  plane waves:    2545
 k-point   3 :   0.0000 0.2000 0.0000  plane waves:    2545
 k-point   4 :   0.0000 0.0000 0.2000  plane waves:    2545
 k-point   5 :   0.4000 0.0000 0.0000  plane waves:    2569
 k-point   6 :   0.0000 0.4000 0.0000  plane waves:    2569
 k-point   7 :   0.0000 0.0000 0.4000  plane waves:    2569
 k-point   8 :   0.2000 0.2000 0.0000  plane waves:    2562
 k-point   9 :   0.0000 0.2000 0.2000  plane waves:    2562
 k-point  10 :   0.2000 0.0000 0.2000  plane waves:    2562
 k-point  11 :  -0.2000 0.2000 0.0000  plane waves:    2562
 k-point  12 :  -0.2000 0.0000 0.2000  plane waves:    2562
 k-point  13 :   0.0000-0.2000 0.2000  plane waves:    2562
 k-point  14 :   0.4000 0.2000 0.0000  plane waves:    2566
 k-point  15 :   0.0000 0.4000 0.2000  plane waves:    2566
 k-point  16 :   0.2000 0.0000 0.4000  plane waves:    2566
 k-point  17 :  -0.2000 0.4000 0.0000  plane waves:    2566
 k-point  18 :  -0.4000 0.0000 0.2000  plane waves:    2566
 k-point  19 :   0.0000 0.2000 0.4000  plane waves:    2566
 k-point  20 :   0.0000-0.4000 0.2000  plane waves:    2566
 k-point  21 :  -0.2000 0.0000 0.4000  plane waves:    2566
 k-point  22 :   0.4000 0.0000 0.2000  plane waves:    2566
 k-point  23 :   0.0000-0.2000 0.4000  plane waves:    2566
 k-point  24 :   0.4000-0.2000 0.0000  plane waves:    2566
 k-point  25 :   0.2000 0.4000 0.0000  plane waves:    2566
 k-point  26 :   0.4000 0.4000 0.0000  plane waves:    2570
 k-point  27 :   0.0000 0.4000 0.4000  plane waves:    2570
 k-point  28 :   0.4000 0.0000 0.4000  plane waves:    2570
 k-point  29 :  -0.4000 0.4000 0.0000  plane waves:    2570
 k-point  30 :  -0.4000 0.0000 0.4000  plane waves:    2570
 k-point  31 :   0.0000-0.4000 0.4000  plane waves:    2570
 k-point  32 :   0.2000 0.2000 0.2000  plane waves:    2572
 k-point  33 :  -0.2000 0.2000 0.2000  plane waves:    2572
 k-point  34 :  -0.2000-0.2000 0.2000  plane waves:    2572
 k-point  35 :   0.2000-0.2000 0.2000  plane waves:    2572
 k-point  36 :   0.4000 0.2000 0.2000  plane waves:    2546
 k-point  37 :   0.2000 0.4000 0.2000  plane waves:    2546
 k-point  38 :   0.2000 0.2000 0.4000  plane waves:    2546
 k-point  39 :  -0.2000 0.4000 0.2000  plane waves:    2546
 k-point  40 :  -0.4000 0.2000 0.2000  plane waves:    2546
 k-point  41 :  -0.2000 0.2000 0.4000  plane waves:    2546
 k-point  42 :  -0.4000-0.2000 0.2000  plane waves:    2546
 k-point  43 :  -0.2000-0.4000 0.2000  plane waves:    2546
 k-point  44 :  -0.2000-0.2000 0.4000  plane waves:    2546
 k-point  45 :   0.2000-0.4000 0.2000  plane waves:    2546
 k-point  46 :   0.4000-0.2000 0.2000  plane waves:    2546
 k-point  47 :   0.2000-0.2000 0.4000  plane waves:    2546
 k-point  48 :   0.4000 0.4000 0.2000  plane waves:    2549
 k-point  49 :   0.2000 0.4000 0.4000  plane waves:    2549
 k-point  50 :   0.4000 0.2000 0.4000  plane waves:    2549
 k-point  51 :  -0.4000 0.4000 0.2000  plane waves:    2549
 k-point  52 :  -0.4000 0.2000 0.4000  plane waves:    2549
 k-point  53 :  -0.2000 0.4000 0.4000  plane waves:    2549
 k-point  54 :  -0.4000-0.4000 0.2000  plane waves:    2549
 k-point  55 :  -0.2000-0.4000 0.4000  plane waves:    2549
 k-point  56 :  -0.4000-0.2000 0.4000  plane waves:    2549
 k-point  57 :   0.4000-0.4000 0.2000  plane waves:    2549
 k-point  58 :   0.4000-0.2000 0.4000  plane waves:    2549
 k-point  59 :   0.2000-0.4000 0.4000  plane waves:    2549
 k-point  60 :   0.4000 0.4000 0.4000  plane waves:    2533
 k-point  61 :  -0.4000 0.4000 0.4000  plane waves:    2533
 k-point  62 :  -0.4000-0.4000 0.4000  plane waves:    2533
 k-point  63 :   0.4000-0.4000 0.4000  plane waves:    2533

 maximum and minimum number of plane-waves per node :       235      194

 maximum number of plane-waves:      2572
 maximum index in each direction: 
   IXMAX=    8   IYMAX=    8   IZMAX=    8
   IXMIN=   -8   IYMIN=   -8   IZMIN=   -8


 parallel 3D FFT for wavefunctions:
    minimum data exchange during FFTs selected (reduces bandwidth)
 parallel 3D FFT for charge:
    minimum data exchange during FFTs selected (reduces bandwidth)


 total amount of memory used by VASP MPI-rank0    48253. kBytes
=======================================================================

   base      :      30000. kBytes
   nonl-proj :       8332. kBytes
   fftplans  :        456. kBytes
   grid      :        919. kBytes
   one-center:         31. kBytes
   wavefun   :       8515. kBytes
 
     INWAV:  cpu time      0.0000: real time      0.0000
 Broyden mixing: mesh for mixing (old mesh)
   NGX = 17   NGY = 17   NGZ = 17
  (NGX  = 72   NGY  = 72   NGZ  = 72)
  gives a total of   4913 points

 initial charge density was supplied:
 charge density of overlapping atoms calculated
 number of electron     212.0000000 magnetization 
 keeping initial charge density in first step


--------------------------------------------------------------------------------------------------------


 Maximum index for augmentation-charges          517 (set IRDMAX)


--------------------------------------------------------------------------------------------------------


 First call to EWALD:  gamma=   0.269
 Maximum number of real-space cells 3x 3x 3
 Maximum number of reciprocal cells 3x 3x 3

    FEWALD:  cpu time      0.0013: real time      0.0013


--------------------------------------- Iteration      1(   1)  ---------------------------------------


    POTLOK:  cpu time      0.0191: real time      0.6556
    SETDIJ:  cpu time      0.0027: real time      0.0028
     EDDAV:  cpu time      7.4298: real time      7.4661
       DOS:  cpu time      0.0048: real time      0.0048
    --------------------------------------------
      LOOP:  cpu time      7.4565: real time      8.1294

 eigenvalue-minimisations  : 17104
 total energy-change (2. order) : 0.1881363E+04  (-0.8553643E+04)
 number of electron     212.0000000 magnetization 
 augmentation part      212.0000000 magnetization 

 Free energy of the ion-electron system (eV)
  ---------------------------------------------------
  alpha Z        PSCENC =      1759.49736023
  Ewald energy   TEWEN  =    -22437.03717314
  -Hartree energ DENC   =     -4370.33601042
  -exchange      EXHF   =         0.00000000
  -V(xc)+E(xc)   XCENC  =       885.71720618
  PAW double counting   =     21073.72610448   -20774.10671508
  entropy T*S    EENTRO =        -0.00165447
  eigenvalues    EBANDS =      -690.95177486
  atomic energy  EATOM  =     26434.85560283
  Solvation  Ediel_sol  =         0.00000000
  ---------------------------------------------------
  free energy    TOTEN  =      1881.36294575 eV

  energy without entropy =     1881.36460022  energy(sigma->0) =     1881.36377298


--------------------------------------------------------------------------------------------------------




--------------------------------------- Iteration      1(   2)  ---------------------------------------


     EDDAV:  cpu time      3.1231: real time      3.1372
       DOS:  cpu time      0.0053: real time      0.0053
    --------------------------------------------
      LOOP:  cpu time      3.1283: real time      3.1425

 eigenvalue-minimisations  : 16952
 total energy-change (2. order) :-0.1920126E+04  (-0.1856089E+04)
 number of electron     212.0000000 magnetization 
 augmentation part      212.0000000 magnetization 

 Free energy of the ion-electron system (eV)
  ---------------------------------------------------
  alpha Z        PSCENC =      1759.49736023
  Ewald energy   TEWEN  =    -22437.03717314
  -Hartree energ DENC   =     -4370.33601042
  -exchange      EXHF   =         0.00000000
  -V(xc)+E(xc)   XCENC  =       885.71720618
  PAW double counting   =     21073.72610448   -20774.10671508
  entropy T*S    EENTRO =        -0.00179925
  eigenvalues    EBANDS =     -2611.07752088
  atomic energy  EATOM  =     26434.85560283
  Solvation  Ediel_sol  =         0.00000000
  ---------------------------------------------------
  free energy    TOTEN  =       -38.76294505 eV

  energy without entropy =      -38.76114580  energy(sigma->0) =      -38.76204543


--------------------------------------------------------------------------------------------------------




--------------------------------------- Iteration      1(   3)  ---------------------------------------


     EDDAV:  cpu time      4.1240: real time      4.1423
       DOS:  cpu time      0.0050: real time      0.0050
    --------------------------------------------
      LOOP:  cpu time      4.1290: real time      4.1473

 eigenvalue-minimisations  : 24400
 total energy-change (2. order) :-0.1433125E+03  (-0.1360308E+03)
 number of electron     212.0000000 magnetization 
 augmentation part      212.0000000 magnetization 

 Free energy of the ion-electron system (eV)
  ---------------------------------------------------
  alpha Z        PSCENC =      1759.49736023
  Ewald energy   TEWEN  =    -22437.03717314
  -Hartree energ DENC   =     -4370.33601042
  -exchange      EXHF   =         0.00000000
  -V(xc)+E(xc)   XCENC  =       885.71720618
  PAW double counting   =     21073.72610448   -20774.10671508
  entropy T*S    EENTRO =        -0.00146267
  eigenvalues    EBANDS =     -2754.39037882
  atomic energy  EATOM  =     26434.85560283
  Solvation  Ediel_sol  =         0.00000000
  ---------------------------------------------------
  free energy    TOTEN  =      -182.07546642 eV

  energy without entropy =     -182.07400374  energy(sigma->0) =     -182.07473508


--------------------------------------------------------------------------------------------------------




--------------------------------------- Iteration      1(   4)  ---------------------------------------


     EDDAV:  cpu time      3.9648: real time      3.9821
       DOS:  cpu time      0.0056: real time      0.0056
    --------------------------------------------
      LOOP:  cpu time      3.9704: real time      3.9877

 eigenvalue-minimisations  : 23432
 total energy-change (2. order) :-0.7963683E+01  (-0.7789826E+01)
 number of electron     212.0000000 magnetization 
 augmentation part      212.0000000 magnetization 

 Free energy of the ion-electron system (eV)
  ---------------------------------------------------
  alpha Z        PSCENC =      1759.49736023
  Ewald energy   TEWEN  =    -22437.03717314
  -Hartree energ DENC   =     -4370.33601042
  -exchange      EXHF   =         0.00000000
  -V(xc)+E(xc)   XCENC  =       885.71720618
  PAW double counting   =     21073.72610448   -20774.10671508
  entropy T*S    EENTRO =        -0.00108163
  eigenvalues    EBANDS =     -2762.35444280
  atomic energy  EATOM  =     26434.85560283
  Solvation  Ediel_sol  =         0.00000000
  ---------------------------------------------------
  free energy    TOTEN  =      -190.03914935 eV

  energy without entropy =     -190.03806772  energy(sigma->0) =     -190.03860853


--------------------------------------------------------------------------------------------------------




--------------------------------------- Iteration      1(   5)  ---------------------------------------


     EDDAV:  cpu time      4.2453: real time      4.2666
       DOS:  cpu time      0.0054: real time      0.0055
    CHARGE:  cpu time      0.0879: real time      0.0882
    MIXING:  cpu time      0.0003: real time      0.0003
    --------------------------------------------
      LOOP:  cpu time      4.3389: real time      4.3606

 eigenvalue-minimisations  : 25520
 total energy-change (2. order) :-0.4554570E+00  (-0.4519609E+00)
 number of electron     211.9999753 magnetization 
 augmentation part       39.5370827 magnetization 

 Broyden mixing:
  rms(total) = 0.48931E+01    rms(broyden)= 0.48914E+01
  rms(prec ) = 0.55013E+01
  weight for this iteration     100.00

 Free energy of the ion-electron system (eV)
  ---------------------------------------------------
  alpha Z        PSCENC =      1759.49736023
  Ewald energy   TEWEN  =    -22437.03717314
  -Hartree energ DENC   =     -4370.33601042
  -exchange      EXHF   =         0.00000000
  -V(xc)+E(xc)   XCENC  =       885.71720618
  PAW double counting   =     21073.72610448   -20774.10671508
  entropy T*S    EENTRO =        -0.00101799
  eigenvalues    EBANDS =     -2762.80996346
  atomic energy  EATOM  =     26434.85560283
  Solvation  Ediel_sol  =         0.00000000
  ---------------------------------------------------
  free energy    TOTEN  =      -190.49460637 eV

  energy without entropy =     -190.49358838  energy(sigma->0) =     -190.49409737


--------------------------------------------------------------------------------------------------------




--------------------------------------- Iteration      1(   6)  ---------------------------------------


    POTLOK:  cpu time      0.0047: real time      0.0048
    SETDIJ:  cpu time      0.0019: real time      0.0019
     EDDAV:  cpu time      3.3852: real time      3.4001
       DOS:  cpu time      0.0049: real time      0.0049
    CHARGE:  cpu time      0.0854: real time      0.0857
    MIXING:  cpu time      0.0003: real time      0.0003
    --------------------------------------------
      LOOP:  cpu time      3.4823: real time      3.4977

 eigenvalue-minimisations  : 18720
 total energy-change (2. order) : 0.8415602E+01  (-0.2378534E+01)
 number of electron     211.9999735 magnetization 
 augmentation part       41.4582107 magnetization 

 Broyden mixing:
  rms(total) = 0.16742E+01    rms(broyden)= 0.16738E+01
  rms(prec ) = 0.21253E+01
  weight for this iteration     100.00

 eigenvalues of (default mixing * dielectric matrix)
  average eigenvalue GAMMA=   1.3361
  1.3361

 Free energy of the ion-electron system (eV)
  ---------------------------------------------------
  alpha Z        PSCENC =      1759.49736023
  Ewald energy   TEWEN  =    -22437.03717314
  -Hartree energ DENC   =     -4124.46385610
  -exchange      EXHF   =         0.00000000
  -V(xc)+E(xc)   XCENC  =       873.47707304
  PAW double counting   =     23620.16291424   -23350.88366934
  entropy T*S    EENTRO =        -0.00170034
  eigenvalues    EBANDS =     -2957.68555603
  atomic energy  EATOM  =     26434.85560283
  Solvation  Ediel_sol  =         0.00000000
  ---------------------------------------------------
  free energy    TOTEN  =      -182.07900461 eV

  energy without entropy =     -182.07730427  energy(sigma->0) =     -182.07815444


--------------------------------------------------------------------------------------------------------




--------------------------------------- Iteration      1(   7)  ---------------------------------------


    POTLOK:  cpu time      0.0050: real time      0.0051
    SETDIJ:  cpu time      0.0017: real time      0.0017
     EDDAV:  cpu time      3.9977: real time      4.0151
       DOS:  cpu time      0.0045: real time      0.0046
    CHARGE:  cpu time      0.0856: real time      0.0860
    MIXING:  cpu time      0.0003: real time      0.0003
    --------------------------------------------
      LOOP:  cpu time      4.0949: real time      4.1127

 eigenvalue-minimisations  : 23608
 total energy-change (2. order) : 0.5037796E+00  (-0.1205428E+01)
 number of electron     211.9999742 magnetization 
 augmentation part       41.4808147 magnetization 

 Broyden mixing:
  rms(total) = 0.89107E+00    rms(broyden)= 0.89086E+00
  rms(prec ) = 0.19249E+01
  weight for this iteration     100.00

 eigenvalues of (default mixing * dielectric matrix)
  average eigenvalue GAMMA=   1.0829
  1.5146  0.6512

 Free energy of the ion-electron system (eV)
  ---------------------------------------------------
  alpha Z        PSCENC =      1759.49736023
  Ewald energy   TEWEN  =    -22437.03717314
  -Hartree energ DENC   =     -4052.34001643
  -exchange      EXHF   =         0.00000000
  -V(xc)+E(xc)   XCENC  =       869.41077493
  PAW double counting   =     25088.19344347   -24829.49169113
  entropy T*S    EENTRO =        -0.00115886
  eigenvalues    EBANDS =     -3014.66236691
  atomic energy  EATOM  =     26434.85560283
  Solvation  Ediel_sol  =         0.00000000
  ---------------------------------------------------
  free energy    TOTEN  =      -181.57522501 eV

  energy without entropy =     -181.57406615  energy(sigma->0) =     -181.57464558


--------------------------------------------------------------------------------------------------------




--------------------------------------- Iteration      1(   8)  ---------------------------------------


    POTLOK:  cpu time      0.0046: real time      0.0047
    SETDIJ:  cpu time      0.0018: real time      0.0018
     EDDAV:  cpu time      3.5503: real time      3.5654
       DOS:  cpu time      0.0048: real time      0.0049
    CHARGE:  cpu time      0.0854: real time      0.0857
    MIXING:  cpu time      0.0003: real time      0.0003
    --------------------------------------------
      LOOP:  cpu time      3.6472: real time      3.6628

 eigenvalue-minimisations  : 20352
 total energy-change (2. order) : 0.1285751E+01  (-0.5595472E+00)
 number of electron     211.9999736 magnetization 
 augmentation part       41.8512026 magnetization 

 Broyden mixing:
  rms(total) = 0.43197E+00    rms(broyden)= 0.43164E+00
  rms(prec ) = 0.70311E+00
  weight for this iteration     100.00

 eigenvalues of (default mixing * dielectric matrix)
  average eigenvalue GAMMA=   1.0464
  1.6321  1.0888  0.4183

 Free energy of the ion-electron system (eV)
  ---------------------------------------------------
  alpha Z        PSCENC =      1759.49736023
  Ewald energy   TEWEN  =    -22437.03717314
  -Hartree energ DENC   =     -4017.30002285
  -exchange      EXHF   =         0.00000000
  -V(xc)+E(xc)   XCENC  =       867.81388157
  PAW double counting   =     25536.48650800   -25282.10388911
  entropy T*S    EENTRO =        -0.00128560
  eigenvalues    EBANDS =     -3042.50045639
  atomic energy  EATOM  =     26434.85560283
  Solvation  Ediel_sol  =         0.00000000
  ---------------------------------------------------
  free energy    TOTEN  =      -180.28947446 eV

  energy without entropy =     -180.28818886  energy(sigma->0) =     -180.28883166


--------------------------------------------------------------------------------------------------------




--------------------------------------- Iteration      1(   9)  ---------------------------------------


    POTLOK:  cpu time      0.0046: real time      0.0047
    SETDIJ:  cpu time      0.0017: real time      0.0017
     EDDAV:  cpu time      3.6741: real time      3.6907
       DOS:  cpu time      0.0056: real time      0.0057
    CHARGE:  cpu time      0.0872: real time      0.0875
    MIXING:  cpu time      0.0003: real time      0.0003
    --------------------------------------------
      LOOP:  cpu time      3.7734: real time      3.7905

 eigenvalue-minimisations  : 21248
 total energy-change (2. order) : 0.3305806E-01  (-0.1348779E+00)
 number of electron     211.9999736 magnetization 
 augmentation part       41.9687109 magnetization 

 Broyden mixing:
  rms(total) = 0.32654E+00    rms(broyden)= 0.32648E+00
  rms(prec ) = 0.47079E+00
  weight for this iteration     100.00

 eigenvalues of (default mixing * dielectric matrix)
  average eigenvalue GAMMA=   1.1350
  1.9955  1.5858  0.5999  0.3588

 Free energy of the ion-electron system (eV)
  ---------------------------------------------------
  alpha Z        PSCENC =      1759.49736023
  Ewald energy   TEWEN  =    -22437.03717314
  -Hartree energ DENC   =     -4009.12063054
  -exchange      EXHF   =         0.00000000
  -V(xc)+E(xc)   XCENC  =       867.42940035
  PAW double counting   =     25742.55930743   -25488.69570637
  entropy T*S    EENTRO =        -0.00161526
  eigenvalues    EBANDS =     -3049.74296194
  atomic energy  EATOM  =     26434.85560283
  Solvation  Ediel_sol  =         0.00000000
  ---------------------------------------------------
  free energy    TOTEN  =      -180.25641640 eV

  energy without entropy =     -180.25480114  energy(sigma->0) =     -180.25560877


--------------------------------------------------------------------------------------------------------




--------------------------------------- Iteration      1(  10)  ---------------------------------------


    POTLOK:  cpu time      0.0046: real time      0.0047
    SETDIJ:  cpu time      0.0017: real time      0.0017
     EDDAV:  cpu time      3.6669: real time      3.6830
       DOS:  cpu time      0.0050: real time      0.0050
    CHARGE:  cpu time      0.0854: real time      0.0857
    MIXING:  cpu time      0.0003: real time      0.0003
    --------------------------------------------
      LOOP:  cpu time      3.7638: real time      3.7804

 eigenvalue-minimisations  : 21264
 total energy-change (2. order) : 0.4324323E-01  (-0.4426768E-01)
 number of electron     211.9999737 magnetization 
 augmentation part       41.8528954 magnetization 

 Broyden mixing:
  rms(total) = 0.13785E+00    rms(broyden)= 0.13780E+00
  rms(prec ) = 0.22845E+00
  weight for this iteration     100.00

 eigenvalues of (default mixing * dielectric matrix)
  average eigenvalue GAMMA=   1.1357
  2.3858  1.6417  0.8547  0.4430  0.3530

 Free energy of the ion-electron system (eV)
  ---------------------------------------------------
  alpha Z        PSCENC =      1759.49736023
  Ewald energy   TEWEN  =    -22437.03717314
  -Hartree energ DENC   =     -4011.17765906
  -exchange      EXHF   =         0.00000000
  -V(xc)+E(xc)   XCENC  =       867.48036099
  PAW double counting   =     25905.98417658   -25651.07756226
  entropy T*S    EENTRO =        -0.00130082
  eigenvalues    EBANDS =     -3048.73697851
  atomic energy  EATOM  =     26434.85560283
  Solvation  Ediel_sol  =         0.00000000
  ---------------------------------------------------
  free energy    TOTEN  =      -180.21317317 eV

  energy without entropy =     -180.21187235  energy(sigma->0) =     -180.21252276


--------------------------------------------------------------------------------------------------------




--------------------------------------- Iteration      1(  11)  ---------------------------------------


    POTLOK:  cpu time      0.0046: real time      0.0047
    SETDIJ:  cpu time      0.0018: real time      0.0018
     EDDAV:  cpu time      3.6904: real time      3.7065
       DOS:  cpu time      0.0057: real time      0.0059
    CHARGE:  cpu time      0.0884: real time      0.0887
    MIXING:  cpu time      0.0003: real time      0.0003
    --------------------------------------------
      LOOP:  cpu time      3.7912: real time      3.8078

 eigenvalue-minimisations  : 21256
 total energy-change (2. order) : 0.6659835E-02  (-0.1203118E-01)
 number of electron     211.9999737 magnetization 
 augmentation part       41.8543020 magnetization 

 Broyden mixing:
  rms(total) = 0.56509E-01    rms(broyden)= 0.56440E-01
  rms(prec ) = 0.12810E+00
  weight for this iteration     100.00

 eigenvalues of (default mixing * dielectric matrix)
  average eigenvalue GAMMA=   1.0432
  2.4347  1.6536  0.8814  0.4679  0.4679  0.3540

 Free energy of the ion-electron system (eV)
  ---------------------------------------------------
  alpha Z        PSCENC =      1759.49736023
  Ewald energy   TEWEN  =    -22437.03717314
  -Hartree energ DENC   =     -4011.05485621
  -exchange      EXHF   =         0.00000000
  -V(xc)+E(xc)   XCENC  =       867.47257458
  PAW double counting   =     25972.97497913   -25717.49237095
  entropy T*S    EENTRO =        -0.00151418
  eigenvalues    EBANDS =     -3049.42111562
  atomic energy  EATOM  =     26434.85560283
  Solvation  Ediel_sol  =         0.00000000
  ---------------------------------------------------
  free energy    TOTEN  =      -180.20651333 eV

  energy without entropy =     -180.20499915  energy(sigma->0) =     -180.20575624


--------------------------------------------------------------------------------------------------------




--------------------------------------- Iteration      1(  12)  ---------------------------------------


    POTLOK:  cpu time      0.0046: real time      0.0047
    SETDIJ:  cpu time      0.0018: real time      0.0018
     EDDAV:  cpu time      3.7090: real time      3.7254
       DOS:  cpu time      0.0054: real time      0.0054
    CHARGE:  cpu time      0.0877: real time      0.0880
[...]
     33     -25.1162      2.00000
     34     -25.1022      2.00000
     35     -25.0920      2.00000
     36     -25.0840      2.00000
     37     -25.0768      2.00000
     38     -25.0112      2.00000
     39     -24.9976      2.00000
     40     -24.9794      2.00000
     41     -24.9403      2.00000
     42     -24.9321      2.00000
     43     -24.9141      2.00000
     44     -24.6139      2.00000
     45     -24.3908      2.00000
     46     -24.3534      2.00000
     47     -24.3093      2.00000
     48     -24.3030      2.00000
     49     -24.2800      2.00000
     50     -24.2593      2.00000
     51     -24.2318      2.00000
     52     -24.0411      2.00000
     53     -21.0826      2.00000
     54     -21.0757      2.00000
     55     -21.0710      2.00000
     56     -21.0633      2.00000
     57     -21.0620      2.00000
     58     -21.0572      2.00000
     59     -21.0342      2.00000
     60     -21.0264      2.00000
     61     -21.0006      2.00000
     62       4.4169      2.00000
     63       4.8622      2.00000
     64       5.1538      2.00000
     65       5.5546      2.00000
     66       5.7043      2.00000
     67       5.8863      2.00000
     68       6.0542      2.00000
     69       6.5808      2.00000
     70       6.7490      2.00000
     71       6.7926      2.00000
     72       6.8233      2.00000
     73       6.8432      2.00000
     74       6.9155      2.00000
     75       6.9405      2.00000
     76       6.9980      2.00000
     77       7.0108      2.00000
     78       7.1415      2.00000
     79       7.1481      2.00000
     80       7.1783      2.00000
     81       7.2186      2.00000
     82       7.4931      2.00000
     83       7.5004      2.00000
     84       7.5726      2.00000
     85       7.5845      2.00000
     86       7.6654      2.00000
     87       7.6882      2.00000
     88       7.7240      2.00000
     89       7.7622      2.00000
     90       7.7778      2.00000
     91       7.8086      2.00000
     92       7.8318      2.00000
     93       7.8517      2.00000
     94       7.9037      2.00000
     95       7.9266      2.00000
     96       7.9422      2.00000
     97       7.9519      2.00000
     98       8.0029      2.00000
     99       8.0152      2.00000
    100       8.0308      2.00000
    101       8.0882      2.00000
    102       8.1489      2.00000
    103       8.1697      2.00000
    104       8.2068      2.00000
    105       8.2306      2.00000
    106       8.2620      2.00000
    107       8.3716      2.00000
    108       8.4223      2.00000
    109       8.7662      2.00000
    110      11.2571      0.00000
    111      11.3017      0.00000
    112      11.3909      0.00000
    113      11.4272      0.00000
    114      11.4984      0.00000
    115      11.5851      0.00000
    116      11.6113      0.00000
    117      11.6709      0.00000
    118      11.7175      0.00000
    119      11.7682      0.00000
    120      11.8125      0.00000
    121      11.8913      0.00000
    122      11.9484      0.00000
    123      12.0149      0.00000
    124      12.0761      0.00000
    125      12.1335      0.00000
    126      12.1740      0.00000
    127      12.2283      0.00000
    128      12.2654      0.00000

 k-point    63 :       0.4000   -0.4000    0.4000
  band No.  band energies     occupation 
      1     -64.2790      2.00000
      2     -64.0441      2.00000
      3     -51.2102      2.00000
      4     -51.2001      2.00000
      5     -51.0383      2.00000
      6     -51.0312      2.00000
      7     -50.9965      2.00000
      8     -50.9898      2.00000
      9     -50.9708      2.00000
     10     -50.9646      2.00000
     11     -44.9995      2.00000
     12     -44.9933      2.00000
     13     -44.9641      2.00000
     14     -28.5425      2.00000
     15     -28.4817      2.00000
     16     -28.4576      2.00000
     17     -28.2644      2.00000
     18     -28.2408      2.00000
     19     -28.1908      2.00000
     20     -25.4821      2.00000
     21     -25.4799      2.00000
     22     -25.4688      2.00000
     23     -25.4108      2.00000
     24     -25.4022      2.00000
     25     -25.3796      2.00000
     26     -25.2535      2.00000
     27     -25.2219      2.00000
     28     -25.1940      2.00000
     29     -25.1608      2.00000
     30     -25.1511      2.00000
     31     -25.1327      2.00000
     32     -25.1299      2.00000
     33     -25.1162      2.00000
     34     -25.1024      2.00000
     35     -25.0919      2.00000
     36     -25.0837      2.00000
     37     -25.0766      2.00000
     38     -25.0123      2.00000
     39     -24.9982      2.00000
     40     -24.9808      2.00000
     41     -24.9403      2.00000
     42     -24.9318      2.00000
     43     -24.9142      2.00000
     44     -24.6132      2.00000
     45     -24.3905      2.00000
     46     -24.3540      2.00000
     47     -24.3137      2.00000
     48     -24.3014      2.00000
     49     -24.2739      2.00000
     50     -24.2617      2.00000
     51     -24.2314      2.00000
     52     -24.0413      2.00000
     53     -21.0830      2.00000
     54     -21.0764      2.00000
     55     -21.0690      2.00000
     56     -21.0660      2.00000
     57     -21.0628      2.00000
     58     -21.0557      2.00000
     59     -21.0324      2.00000
     60     -21.0265      2.00000
     61     -21.0013      2.00000
     62       4.4066      2.00000
     63       4.9083      2.00000
     64       5.1261      2.00000
     65       5.5209      2.00000
     66       5.7165      2.00000
     67       5.9024      2.00000
     68       6.0467      2.00000
     69       6.5841      2.00000
     70       6.7359      2.00000
     71       6.7663      2.00000
     72       6.8198      2.00000
     73       6.8671      2.00000
     74       6.9222      2.00000
     75       6.9535      2.00000
     76       7.0122      2.00000
     77       7.0603      2.00000
     78       7.0887      2.00000
     79       7.1399      2.00000
     80       7.1721      2.00000
     81       7.2127      2.00000
     82       7.4866      2.00000
     83       7.4988      2.00000
     84       7.5598      2.00000
     85       7.5858      2.00000
     86       7.6673      2.00000
     87       7.6809      2.00000
     88       7.7275      2.00000
     89       7.7795      2.00000
     90       7.7936      2.00000
     91       7.8061      2.00000
     92       7.8363      2.00000
     93       7.8734      2.00000
     94       7.9113      2.00000
     95       7.9160      2.00000
     96       7.9499      2.00000
     97       7.9651      2.00000
     98       7.9776      2.00000
     99       8.0084      2.00000
    100       8.0797      2.00000
    101       8.0835      2.00000
    102       8.0933      2.00000
    103       8.1541      2.00000
    104       8.2062      2.00000
    105       8.2246      2.00000
    106       8.2674      2.00000
    107       8.3979      2.00000
    108       8.4411      2.00000
    109       8.7380      2.00000
    110      11.2658      0.00000
    111      11.3053      0.00000
    112      11.4257      0.00000
    113      11.4338      0.00000
    114      11.4878      0.00000
    115      11.5675      0.00000
    116      11.6051      0.00000
    117      11.6874      0.00000
    118      11.7013      0.00000
    119      11.7655      0.00000
    120      11.7908      0.00000
    121      11.8802      0.00000
    122      11.9395      0.00000
    123      12.0387      0.00000
    124      12.0651      0.00000
    125      12.1313      0.00000
    126      12.1884      0.00000
    127      12.2179      0.00000
    128      12.3163      0.00000


--------------------------------------------------------------------------------------------------------


 soft charge-density along one line, spin component           1
         0         1         2         3         4         5         6         7         8         9
 total charge-density along one line
 
 pseudopotential strength for first ion, spin component:           1
  5.777 -20.375  -0.001  -0.001   0.002   0.002   0.002  -0.004
-20.375   9.285  -0.002  -0.002   0.003   0.000   0.000  -0.000
 -0.001  -0.002  -9.812   0.003  -0.001   6.064  -0.003   0.001
 -0.001  -0.002   0.003  -9.815  -0.001  -0.003   6.067   0.001
  0.002   0.003  -0.001  -0.001  -9.814   0.001   0.001   6.067
  0.002   0.000   6.064  -0.003   0.001   7.899   0.002  -0.001
  0.002   0.000  -0.003   6.067   0.001   0.002   7.898  -0.000
 -0.004  -0.000   0.001   0.001   6.067  -0.001  -0.000   7.897
 -0.001  -0.000   0.002   0.000  -0.001  -0.002  -0.000   0.001
  0.002   0.001  -0.001  -0.001   0.000   0.001   0.001  -0.000
 -0.001  -0.000   0.001  -0.001  -0.001  -0.001   0.001   0.001
 -0.000  -0.000   0.000   0.002  -0.001  -0.000  -0.002   0.001
 -0.001  -0.000   0.001   0.000   0.001  -0.001  -0.000  -0.002
 -0.001  -0.000   0.002   0.000  -0.001  -0.003  -0.001   0.002
  0.003   0.001  -0.001  -0.001   0.000   0.002   0.002  -0.001
 -0.001  -0.000   0.001  -0.001  -0.001  -0.001   0.002   0.001
 -0.001  -0.000   0.000   0.002  -0.001  -0.001  -0.003   0.002
 -0.001  -0.001   0.001   0.000   0.002  -0.001  -0.000  -0.002
 total augmentation occupancy for first ion, spin component:           1
  1.995  -0.051   0.000   0.000   0.000   0.000   0.000   0.000  -0.003   0.006  -0.001  -0.003  -0.001   0.003  -0.005   0.001
 -0.051   1.316   0.001   0.001   0.000   0.001   0.001  -0.002  -0.008   0.026  -0.028  -0.008  -0.008   0.001  -0.014   0.013
  0.000   0.001   1.996  -0.000   0.000  -0.034   0.000  -0.001   0.002   0.002   0.001  -0.003   0.002  -0.001  -0.001  -0.001
  0.000   0.001  -0.000   1.996   0.000   0.000  -0.034  -0.001  -0.003   0.003  -0.002   0.001  -0.000   0.002  -0.002   0.001
  0.000   0.000   0.000   0.000   1.996  -0.001  -0.001  -0.035   0.002  -0.003  -0.003   0.002   0.004  -0.001   0.002   0.002
  0.000   0.001  -0.034   0.000  -0.001   0.072  -0.000   0.001  -0.010   0.000  -0.002  -0.003  -0.004   0.005   0.001   0.001
  0.000   0.001   0.000  -0.034  -0.001  -0.000   0.069   0.001  -0.003  -0.001   0.004  -0.008   0.000   0.001   0.001  -0.001
  0.000  -0.002  -0.001  -0.001  -0.035   0.001   0.001   0.073  -0.000  -0.003   0.004  -0.000  -0.006   0.001   0.001  -0.002
 -0.003  -0.008   0.002  -0.003   0.002  -0.010  -0.003  -0.000   3.152   0.003   0.022   0.064   0.000  -1.312  -0.005  -0.009
  0.006   0.026   0.002   0.003  -0.003   0.000  -0.001  -0.003   0.003   3.163   0.019   0.002  -0.038  -0.005  -1.311  -0.009
 -0.001  -0.028   0.001  -0.002  -0.003  -0.002   0.004   0.004   0.022   0.019   2.447  -0.009   0.020  -0.009  -0.009  -1.086
 -0.003  -0.008  -0.003   0.001   0.002  -0.003  -0.008  -0.000   0.064   0.002  -0.009   3.163  -0.020  -0.029  -0.005   0.004
 -0.001  -0.008   0.002  -0.000   0.004  -0.004   0.000  -0.006   0.000  -0.038   0.020  -0.020   2.506  -0.000   0.017  -0.007
  0.003   0.001  -0.001   0.002  -0.001   0.005   0.001   0.001  -1.312  -0.005  -0.009  -0.029  -0.000   0.557   0.004   0.003
 -0.005  -0.014  -0.001  -0.002   0.002   0.001   0.001   0.001  -0.005  -1.311  -0.009  -0.005   0.017   0.004   0.553   0.004
  0.001   0.013  -0.001   0.001   0.002   0.001  -0.001  -0.002  -0.009  -0.009  -1.086   0.004  -0.007   0.003   0.004   0.489
  0.003   0.001   0.002  -0.001  -0.001   0.001   0.004   0.001  -0.028  -0.005   0.004  -1.312   0.008   0.013   0.004  -0.001
  0.001   0.003  -0.001   0.000  -0.003   0.001  -0.000   0.003  -0.000   0.018  -0.007   0.008  -1.114  -0.000  -0.008   0.002


------------------------ aborting loop because EDIFF is reached ----------------------------------------


    CHARGE:  cpu time      0.0886: real time      0.0889
    FORLOC:  cpu time      0.0005: real time      0.0005
    FORNL :  cpu time      0.8441: real time      0.8475
    STRESS:  cpu time      1.0324: real time      1.0364
    FORCOR:  cpu time      0.0058: real time      0.0058
    FORHAR:  cpu time      0.0015: real time      0.0016
    MIXING:  cpu time      0.0006: real time      0.0006
    OFIELD:  cpu time      0.0000: real time      0.0000

  FORCE on cell =-STRESS in cart. coord.  units (eV):
  Direction    XX          YY          ZZ          XY          YZ          ZX
  --------------------------------------------------------------------------------------
  Alpha Z  1759.49736  1759.49736  1759.49736
  Ewald   -7469.37375 -7487.49073 -7480.24394    15.80762    22.13067     9.48457
  Hartree  1346.31559  1329.10859  1335.76831    14.19301    22.09292     9.21720
  E(xc)    -983.65112  -983.59719  -983.62415    -0.01854    -0.07537    -0.01740
  Local    1692.75798  1727.41591  1713.41575   -29.25338   -42.08448   -18.68050
  n-local  -393.70287  -394.68539  -393.15627    -0.10345    -0.97964     0.48611
  augment   525.54220   525.57262   525.51591    -0.15028    -0.32451    -0.01633
  Kinetic  3490.67497  3491.61122  3490.52030    -0.35883     0.02296    -0.27151
  Fock        0.00000     0.00000     0.00000     0.00000     0.00000     0.00000
  -------------------------------------------------------------------------------------
  Total     -31.93963   -32.56761   -32.30673     0.11616     0.78254     0.20216
  in kB    -179.62334  -183.15499  -181.68785     0.65325     4.40091     1.13691
  external pressure =     -181.49 kB  Pullay stress =        0.00 kB


 VOLUME and BASIS-vectors are now :
 -----------------------------------------------------------------------------
  energy-cutoff  :      250.00
  volume of cell :      284.89
      direct lattice vectors                 reciprocal lattice vectors
     6.580000000  0.000000000  0.000000000     0.151975684  0.000000000  0.000000000
     0.000000000  6.580000000  0.000000000     0.000000000  0.151975684  0.000000000
     0.000000000  0.000000000  6.580000000     0.000000000  0.000000000  0.151975684

  length of vectors
     6.580000000  6.580000000  6.580000000     0.151975684  0.151975684  0.151975684


 FORCES acting on ions
    electron-ion (+dipol)            ewald-force                    non-local-force                 convergence-correction
 -----------------------------------------------------------------------------------------------
   0.308E+02 -.309E+02 -.309E+02   -.306E+02 0.306E+02 0.306E+02   0.726E-01 0.226E-01 0.340E-01   0.675E-04 -.336E-05 -.201E-04
   -.309E+02 0.309E+02 0.309E+02   0.306E+02 -.306E+02 -.306E+02   -.602E-01 -.402E-01 -.411E-01   -.712E-04 0.125E-04 0.177E-04
   0.308E+02 0.308E+02 -.308E+02   -.306E+02 -.306E+02 0.306E+02   0.405E-01 -.293E-01 0.309E-01   0.601E-04 -.202E-05 -.121E-04
   0.112E+02 0.111E+02 0.111E+02   -.110E+02 -.110E+02 -.110E+02   -.305E-01 0.412E-01 0.506E-01   0.416E-04 0.291E-04 0.482E-04
   0.330E+02 -.331E+02 0.331E+02   -.329E+02 0.329E+02 -.329E+02   0.564E-01 0.394E-02 -.468E-03   0.743E-04 -.115E-04 0.166E-04
   -.111E+02 0.110E+02 0.110E+02   0.110E+02 -.110E+02 -.110E+02   -.411E-02 0.945E-01 0.771E-01   -.381E-04 0.249E-04 0.388E-04
   0.112E+02 0.111E+02 -.111E+02   -.110E+02 -.110E+02 0.110E+02   -.144E-01 0.731E-01 -.725E-01   0.454E-04 0.351E-04 -.488E-04
   -.111E+02 -.110E+02 -.110E+02   0.110E+02 0.110E+02 0.110E+02   -.578E-02 -.789E-01 -.937E-01   -.378E-04 -.273E-04 -.345E-04
   0.112E+02 -.110E+02 0.110E+02   -.110E+02 0.110E+02 -.110E+02   -.483E-02 -.677E-01 0.678E-01   0.418E-04 -.280E-04 0.390E-04
   0.112E+02 -.111E+02 -.111E+02   -.110E+02 0.110E+02 0.110E+02   -.305E-01 -.500E-01 -.415E-01   0.390E-04 -.328E-04 -.394E-04
   -.330E+02 -.331E+02 0.331E+02   0.329E+02 0.329E+02 -.329E+02   -.655E-01 -.116E-01 0.807E-02   -.743E-04 -.769E-05 0.182E-04
   0.262E+02 0.261E+02 0.262E+02   -.259E+02 -.259E+02 -.259E+02   0.700E-01 0.560E-02 0.168E-01   0.638E-04 0.182E-04 0.213E-04
   -.887E+01 -.889E+01 0.890E+01   0.863E+01 0.863E+01 -.863E+01   0.839E-02 -.279E-01 0.258E-01   -.306E-04 -.252E-04 0.313E-04
   -.262E+02 -.262E+02 -.262E+02   0.259E+02 0.259E+02 0.259E+02   -.476E-01 0.121E-01 0.559E-02   -.608E-04 -.146E-04 -.252E-04
   -.112E+02 0.112E+02 -.112E+02   0.110E+02 -.110E+02 0.110E+02   -.406E-01 0.332E-01 -.335E-01   -.461E-04 0.304E-04 -.403E-04
   -.331E+02 0.331E+02 -.331E+02   0.329E+02 -.329E+02 0.329E+02   -.398E-01 0.447E-01 -.483E-01   -.656E-04 0.860E-05 -.161E-04
 -----------------------------------------------------------------------------------------------
   0.959E-01 -.255E-01 0.145E-01   0.426E-13 -.156E-12 -.284E-13   -.959E-01 0.254E-01 -.145E-01   0.895E-05 0.613E-05 -.529E-05
 
 
 POSITION                                       TOTAL-FORCE (eV/Angst)
 -----------------------------------------------------------------------------------
      1.64500      1.64500      4.93500         0.308738     -0.253014     -0.230522
      4.93500      4.93500      1.64500        -0.327001      0.231933      0.236161
      1.64500      4.93500      4.93500         0.274342      0.215261     -0.209320
      3.29000      0.00000      0.00000         0.202515      0.178137      0.174767
      1.64500      1.64500      1.64500         0.145913     -0.173540      0.178615
      0.00000      0.00000      0.00000        -0.169992      0.139285      0.126708
      3.29000      0.00000      3.29000         0.192478      0.163014     -0.169547
      0.00000      3.29000      3.29000        -0.171258     -0.122595     -0.143903
      3.29000      3.29000      0.00000         0.183166     -0.127227      0.131997
      3.29000      3.29000      3.29000         0.201857     -0.170076     -0.181887
      4.93500      1.64500      1.64500        -0.163861     -0.189838      0.185402
      1.64500      4.93500      1.64500         0.339715      0.264988      0.287467
      0.00000      3.29000      0.00000        -0.233876     -0.292244      0.298321
      4.93500      1.64500      4.93500        -0.359544     -0.272515     -0.266743
      0.00000      0.00000      3.29000        -0.229297      0.211928     -0.216021
      4.93500      4.93500      4.93500        -0.193893      0.196503     -0.201493
 -----------------------------------------------------------------------------------
    total drift:                               -0.000001     -0.000003      0.000001


--------------------------------------------------------------------------------------------------------



  FREE ENERGIE OF THE ION-ELECTRON SYSTEM (eV)
  ---------------------------------------------------
  free  energy   TOTEN  =      -180.20045898 eV

  energy  without entropy=     -180.19892374  energy(sigma->0) =     -180.19969136
 


--------------------------------------------------------------------------------------------------------


    POTLOK:  cpu time      0.0062: real time      0.0062


--------------------------------------------------------------------------------------------------------


     LOOP+:  cpu time     96.1250: real time     97.2825
    4ORBIT:  cpu time      0.0000: real time      0.0000

 total amount of memory used by VASP MPI-rank0    48253. kBytes
=======================================================================

   base      :      30000. kBytes
   nonl-proj :       8332. kBytes
   fftplans  :        456. kBytes
   grid      :        919. kBytes
   one-center:         31. kBytes
   wavefun   :       8515. kBytes
 
  
  
 General timing and accounting informations for this job:
 ========================================================
  
                  Total CPU time used (sec):      100.734
                            User time (sec):       99.209
                          System time (sec):        1.525
                         Elapsed time (sec):      103.146
  
                   Maximum memory used (kb):       91972.
                   Average memory used (kb):          N/A
  
                          Minor page faults:         8254
                          Major page faults:            0
                 Voluntary context switches:          215
