 vasp.6.3.1 04May22 (build Jul 26 2022 04:02:40) complex                        
  
 executed on             LinuxIFC date 2023.11.30  01:42:29
 running on   48 total cores
 distrk:  each k-point on   48 cores,    1 groups
 distr:  one band on NCORE=  12 cores,    4 groups


--------------------------------------------------------------------------------------------------------


 INCAR:
   ISTART = 0
   NWRITE = 2
   PREC = Accurate
   ENCUT = 250
   GGA = PE
   NSW = 0
   ISIF = 2
   ISYM = 2
   NBLOCK = 1
   KBLOCK = 1
   IBRION = -1
   NELM = 80
   EDIFF = 1E-08
   EDIFFG = -0.01
   ALGO = Normal
   LDIAG = .TRUE.
   LREAL = .FALSE.
   ISMEAR = 0
   SIGMA = 0.02
   ICHARG = 2
   LPLANE = .TRUE.
   NPAR = 4
   LSCALU = .FALSE.
   NSIM = 4
   LWAVE = .FALSE.
   LCHARG = .FALSE.
   ICORELEVEL = 1

 POTCAR:    PAW_PBE Nb_sv 25May2007               
 POTCAR:    PAW_PBE Mo_sv 02Feb2006               
 POTCAR:    PAW_PBE Ta_pv 07Sep2000               
 POTCAR:    PAW_PBE W_sv 04Sep2015                
 POTCAR:    PAW_PBE Nb_sv 25May2007               
   SHA256 =  0e8fc07c9fcd1164cf2ade22d0399fd28f85e91cd773dfa6cf24839a48c95e24 Nb_sv/POTCAR          
   COPYR  = (c) Copyright 25May2007 Georg Kresse                                                    
   COPYR  = This file is part of the software VASP. Any use, copying, and all other rights are regul
   COPYR  = If you do not have a valid VASP license, you may not use, copy or distribute this file. 
   VRHFIN =Nb: 4p5s4d                                                                               
   LEXCH  = PE                                                                                      
   EATOM  =  1555.1913 eV,  114.3033 Ry                                                             
                                                                                                    
   TITEL  = PAW_PBE Nb_sv 25May2007                                                                 
   LULTRA =        F    use ultrasoft PP ?                                                          
   IUNSCR =        1    unscreen: 0-lin 1-nonlin 2-no                                               
   RPACOR =    1.800    partial core radius                                                         
   POMASS =   92.910; ZVAL   =   13.000    mass and valenz                                          
   RCORE  =    2.400    outmost cutoff radius                                                       
   RWIGS  =    2.400; RWIGS  =    1.270    wigner-seitz radius (au A)                               
   ENMAX  =  293.235; ENMIN  =  219.927 eV                                                          
   ICORE  =        3    local potential                                                             
   LCOR   =        T    correct aug charges                                                         
   LPAW   =        T    paw PP                                                                      
   EAUG   =  455.659                                                                                
   DEXC   =    0.000                                                                                
   RMAX   =    2.456    core radius for proj-oper                                                   
   RAUG   =    1.300    factor for augmentation sphere                                              
   RDEP   =    2.451    radius for radial grids                                                     
   RDEPT  =    1.956    core radius for aug-charge                                                  
                                                                                                    
   Atomic configuration                                                                             
   11 entries                                                                                       
     n  l   j            E        occ.                                                              
     1  0  0.50    -18805.2457   2.0000                                                             
     2  0  0.50     -2630.2869   2.0000                                                             
     2  1  1.50     -2348.4046   6.0000                                                             
     3  0  0.50      -438.8757   2.0000                                                             
     3  1  1.50      -346.7588   6.0000                                                             
     3  2  2.50      -196.2560  10.0000                                                             
     4  0  0.50       -58.3859   2.0000                                                             
     5  0  0.50        -3.9816   1.0000                                                             
     4  1  1.50       -34.5141   6.0000                                                             
     4  2  2.50        -3.0408   4.0000                                                             
     4  3  2.50        -1.3606   0.0000                                                             
   Description                                                                                      
     l       E           TYP  RCUT    TYP  RCUT                                                     
     0    -58.3859094     23  2.200                                                                 
     0     -3.9816262     23  2.200                                                                 
     1    -34.5140738     23  2.200                                                                 
     1     13.6058260     23  2.200                                                                 
     2     -3.0408010     23  2.200                                                                 
     2     -0.1283038     23  2.200                                                                 
     3     -1.3605826     23  2.400                                                                 
  local pseudopotential read in
  partial core-charges read in
  partial kinetic energy density read in
  atomic valenz-charges read in
  non local Contribution for L=           0  read in
    real space projection operators read in
  non local Contribution for L=           0  read in
    real space projection operators read in
  non local Contribution for L=           1  read in
    real space projection operators read in
  non local Contribution for L=           1  read in
    real space projection operators read in
  non local Contribution for L=           2  read in
    real space projection operators read in
  non local Contribution for L=           2  read in
    real space projection operators read in
    PAW grid and wavefunctions read in
 
   number of l-projection  operators is LMAX  =           6
   number of lm-projection operators is LMMAX =          18
 
 POTCAR:    PAW_PBE Mo_sv 02Feb2006               
   SHA256 =  2731df97e41766cc617548c5a8267718fdef1f509ac6bafa01e745abea2bdfaa Mo_sv/POTCAR          
   COPYR  = (c) Copyright 02Feb2006 Georg Kresse                                                    
   COPYR  = This file is part of the software VASP. Any use, copying, and all other rights are regul
   COPYR  = If you do not have a valid VASP license, you may not use, copy or distribute this file. 
   VRHFIN =Mo: 4p5s4d                                                                               
   LEXCH  = PE                                                                                      
   EATOM  =  1862.2866 eV,  136.8742 Ry                                                             
                                                                                                    
   TITEL  = PAW_PBE Mo_sv 02Feb2006                                                                 
   LULTRA =        F    use ultrasoft PP ?                                                          
   IUNSCR =        1    unscreen: 0-lin 1-nonlin 2-no                                               
   RPACOR =    2.200    partial core radius                                                         
   POMASS =   95.940; ZVAL   =   14.000    mass and valenz                                          
   RCORE  =    2.500    outmost cutoff radius                                                       
   RWIGS  =    2.750; RWIGS  =    1.455    wigner-seitz radius (au A)                               
   ENMAX  =  242.676; ENMIN  =  182.007 eV                                                          
   ICORE  =        3    local potential                                                             
   LCOR   =        T    correct aug charges                                                         
   LPAW   =        T    paw PP                                                                      
   EAUG   =  446.014                                                                                
   DEXC   =    0.000                                                                                
   RMAX   =    2.563    core radius for proj-oper                                                   
   RAUG   =    1.300    factor for augmentation sphere                                              
   RDEP   =    2.641    radius for radial grids                                                     
   RDEPT  =    2.031    core radius for aug-charge                                                  
                                                                                                    
   Atomic configuration                                                                             
   11 entries                                                                                       
     n  l   j            E        occ.                                                              
     1  0  0.50    -19819.0341   2.0000                                                             
     2  0  0.50     -2799.0127   2.0000                                                             
     2  1  1.50     -2502.0276   6.0000                                                             
     3  0  0.50      -476.4449   2.0000                                                             
     3  1  1.50      -379.1496   6.0000                                                             
     3  2  2.50      -220.9367  10.0000                                                             
     4  0  0.50       -64.3378   2.0000                                                             
     5  0  0.50        -4.0862   1.0000                                                             
     4  1  1.50       -38.4773   6.0000                                                             
     4  2  2.50        -3.7535   5.0000                                                             
     4  3  2.50        -1.3606   0.0000                                                             
   Description                                                                                      
     l       E           TYP  RCUT    TYP  RCUT                                                     
     0    -64.3377829     23  2.100                                                                 
     0     -4.0861640     23  2.400                                                                 
     1    -38.4772993     23  2.100                                                                 
     1     13.6058260     23  2.100                                                                 
     2     -3.7534941     23  2.400                                                                 
     2     -5.1140767     23  2.400                                                                 
     3     -4.0817478     23  2.500                                                                 
  local pseudopotential read in
  partial core-charges read in
  partial kinetic energy density read in
  atomic valenz-charges read in
  non local Contribution for L=           0  read in
    real space projection operators read in
  non local Contribution for L=           0  read in
    real space projection operators read in
  non local Contribution for L=           1  read in
    real space projection operators read in
  non local Contribution for L=           1  read in
    real space projection operators read in
  non local Contribution for L=           2  read in
    real space projection operators read in
  non local Contribution for L=           2  read in
    real space projection operators read in
    PAW grid and wavefunctions read in
 
   number of l-projection  operators is LMAX  =           6
   number of lm-projection operators is LMMAX =          18
 
 POTCAR:    PAW_PBE Ta_pv 07Sep2000               
   SHA256 =  00d0a14a36c127416459414afb8617d9754996fffa60a2465888e660b20a452f Ta_pv/POTCAR          
   COPYR  = (c) Copyright 07Sep2000 Georg Kresse                                                    
   COPYR  = This file is part of the software VASP. Any use, copying, and all other rights are regul
   COPYR  = If you do not have a valid VASP license, you may not use, copy or distribute this file. 
   VRHFIN =Ta:  5p6s5d                                                                              
   LEXCH  = PE                                                                                      
   EATOM  =  1047.1984 eV,   76.9669 Ry                                                             
                                                                                                    
   TITEL  = PAW_PBE Ta_pv 07Sep2000                                                                 
   LULTRA =        F    use ultrasoft PP ?                                                          
   IUNSCR =        1    unscreen: 0-lin 1-nonlin 2-no                                               
   RPACOR =    2.330    partial core radius                                                         
   POMASS =  180.948; ZVAL   =   11.000    mass and valenz                                          
   RCORE  =    2.500    outmost cutoff radius                                                       
   RWIGS  =    2.840; RWIGS  =    1.503    wigner-seitz radius (au A)                               
   ENMAX  =  223.667; ENMIN  =  167.750 eV                                                          
   RCLOC  =    2.205    cutoff for local pot                                                        
   LCOR   =        T    correct aug charges                                                         
   LPAW   =        T    paw PP                                                                      
   EAUG   =  377.421                                                                                
   DEXC   =    0.000                                                                                
   RMAX   =    2.551    core radius for proj-oper                                                   
   RAUG   =    1.300    factor for augmentation sphere                                              
   RDEP   =    2.526    radius for radial grids                                                     
   RDEPT  =    2.132    core radius for aug-charge                                                  
                                                                                                    
   Atomic configuration                                                                             
   15 entries                                                                                       
     n  l   j            E        occ.                                                              
     1  0  0.50    -67341.2801   2.0000                                                             
     2  0  0.50    -11566.9369   2.0000                                                             
     2  1  1.50    -10134.1175   6.0000                                                             
     3  0  0.50     -2648.5614   2.0000                                                             
     3  1  1.50     -2222.6006   6.0000                                                             
     3  2  2.50     -1726.3114  10.0000                                                             
     4  0  0.50      -538.6957   2.0000                                                             
     4  1  1.50      -399.0125   6.0000                                                             
     4  2  2.50      -220.3955  10.0000                                                             
     4  3  3.50       -23.0371  14.0000                                                             
     5  0  0.50       -71.2900   2.0000                                                             
     5  1  1.50       -37.8224   6.0000                                                             
     5  2  2.50        -2.6455   4.0000                                                             
     6  0  0.50        -4.9623   1.0000                                                             
     5  3  2.50        -1.3606   0.0000                                                             
   Description                                                                                      
     l       E           TYP  RCUT    TYP  RCUT                                                     
     1    -37.8224449     23  2.500                                                                 
     1      1.3605826     23  2.500                                                                 
     2     -2.6454718     23  2.500                                                                 
     2     -0.6258570     23  2.500                                                                 
     0     -4.9622674     23  2.500                                                                 
     0      4.7531427     23  2.500                                                                 
  local pseudopotential read in
  partial core-charges read in
  partial kinetic energy density read in
  atomic valenz-charges read in
  non local Contribution for L=           1  read in
    real space projection operators read in
  non local Contribution for L=           1  read in
    real space projection operators read in
  non local Contribution for L=           2  read in
    real space projection operators read in
  non local Contribution for L=           2  read in
    real space projection operators read in
  non local Contribution for L=           0  read in
    real space projection operators read in
  non local Contribution for L=           0  read in
    real space projection operators read in
    PAW grid and wavefunctions read in
 
   number of l-projection  operators is LMAX  =           6
   number of lm-projection operators is LMMAX =          18
 
 POTCAR:    PAW_PBE W_sv 04Sep2015                
   SHA256 =  931c2d770f65867ef30f3db3421922900fc0890ebac5c3e12f63b6a2064023d7 W_sv/POTCAR           
   COPYR  = (c) Copyright 04Sep2015 Georg Kresse                                                    
   COPYR  = This file is part of the software VASP. Any use, copying, and all other rights are regul
   COPYR  = If you do not have a valid VASP license, you may not use, copy or distribute this file. 
   VRHFIN =W : 5p6s5d                                                                               
   LEXCH  = PE                                                                                      
   EATOM  =  1865.5791 eV,  137.1162 Ry                                                             
                                                                                                    
   TITEL  = PAW_PBE W_sv 04Sep2015                                                                  
   LULTRA =        F    use ultrasoft PP ?                                                          
   IUNSCR =        1    unscreen: 0-lin 1-nonlin 2-no                                               
   RPACOR =    2.330    partial core radius                                                         
   POMASS =  183.850; ZVAL   =   14.000    mass and valenz                                          
   RCORE  =    2.500    outmost cutoff radius                                                       
   RWIGS  =    2.750; RWIGS  =    1.455    wigner-seitz radius (au A)                               
   ENMAX  =  223.057; ENMIN  =  167.293 eV                                                          
   ICORE  =        3    local potential                                                             
   LCOR   =        T    correct aug charges                                                         
   LPAW   =        T    paw PP                                                                      
   EAUG   =  373.438                                                                                
   DEXC   =    0.000                                                                                
   RMAX   =    2.565    core radius for proj-oper                                                   
   RAUG   =    1.300    factor for augmentation sphere                                              
   RDEP   =    2.539    radius for radial grids                                                     
   RDEPT  =    2.126    core radius for aug-charge                                                  
                                                                                                    
   Atomic configuration                                                                             
   15 entries                                                                                       
     n  l   j            E        occ.                                                              
     1  0  0.50    -69465.5834   2.0000                                                             
     2  0  0.50    -11986.2640   2.0000                                                             
     2  1  1.50    -10479.8613   6.0000                                                             
     3  0  0.50     -2759.0756   2.0000                                                             
     3  1  1.50     -2313.1855   6.0000                                                             
     3  2  2.50     -1801.1183  10.0000                                                             
     4  0  0.50      -567.6789   2.0000                                                             
     4  1  1.50      -421.4692   6.0000                                                             
     4  2  2.50      -236.3471  10.0000                                                             
     4  3  3.50       -31.2665  14.0000                                                             
     5  0  0.50       -77.1084   2.0000                                                             
     6  0  0.50        -5.1438   1.0000                                                             
     5  1  1.50       -41.3856   6.0000                                                             
     5  2  2.50        -3.3185   5.0000                                                             
     5  3  2.50        -1.3606   0.0000                                                             
   Description                                                                                      
     l       E           TYP  RCUT    TYP  RCUT                                                     
     0    -77.1084470     23  2.100                                                                 
     0     -5.1437956     23  2.300                                                                 
     1    -41.3855615     23  2.500                                                                 
     1     -2.7211652     23  2.500                                                                 
     2     -3.3185025     23  2.500                                                                 
     2     -1.5965151     23  2.500                                                                 
     3     -1.3605826     23  2.500                                                                 
  local pseudopotential read in
  partial core-charges read in
  partial kinetic energy density read in
  kinetic energy density of atom read in
  atomic valenz-charges read in
  non local Contribution for L=           0  read in
    real space projection operators read in
  non local Contribution for L=           0  read in
    real space projection operators read in
  non local Contribution for L=           1  read in
    real space projection operators read in
  non local Contribution for L=           1  read in
    real space projection operators read in
  non local Contribution for L=           2  read in
    real space projection operators read in
  non local Contribution for L=           2  read in
    real space projection operators read in
    PAW grid and wavefunctions read in
 
   number of l-projection  operators is LMAX  =           6
   number of lm-projection operators is LMMAX =          18
 
  PAW_PBE Nb_sv 25May2007               :
 energy of atom  1       EATOM=-1555.1913
 kinetic energy error for atom=    0.2155 (will be added to EATOM!!)
  PAW_PBE Mo_sv 02Feb2006               :
 energy of atom  2       EATOM=-1862.2866
 kinetic energy error for atom=    0.1102 (will be added to EATOM!!)
  PAW_PBE Ta_pv 07Sep2000               :
 energy of atom  3       EATOM=-1047.1984
 kinetic energy error for atom=    0.0394 (will be added to EATOM!!)
  PAW_PBE W_sv 04Sep2015                :
 energy of atom  4       EATOM=-1865.5791
 kinetic energy error for atom=    0.0589 (will be added to EATOM!!)
 
 
 POSCAR: Nb-Mo-Ta-W alloy
  positions in direct lattice
  No initial velocities read in
 exchange correlation table for  LEXCH =        8
   RHO(1)=    0.500       N(1)  =     2000
   RHO(2)=  100.500       N(2)  =     4000
 


--------------------------------------------------------------------------------------------------------


 ion  position               nearest neighbor table
   1  0.750  0.750  0.750-   3 2.85   6 2.85   8 2.85   9 2.85  10 2.85  11 2.85  12 2.85  13 2.85

   2  0.250  0.250  0.250-   3 2.85   6 2.85   8 2.85   9 2.85  10 2.85  11 2.85  12 2.85  13 2.85

   3  0.500  0.500  0.500-   1 2.85   2 2.85   4 2.85   5 2.85   7 2.85  14 2.85  15 2.85  16 2.85
                            11 3.29   9 3.29  11 3.29   9 3.29
   4  0.250  0.750  0.750-   3 2.85   6 2.85   8 2.85   9 2.85  10 2.85  11 2.85  12 2.85  13 2.85
                             7 3.29  15 3.29  15 3.29   7 3.29
   5  0.750  0.250  0.750-   3 2.85   6 2.85   8 2.85   9 2.85  10 2.85  11 2.85  12 2.85  13 2.85
                             7 3.29  14 3.29  14 3.29   7 3.29
   6  0.000  0.000  0.000-   1 2.85   2 2.85   4 2.85   5 2.85   7 2.85  14 2.85  15 2.85  16 2.85
                             8 3.29  10 3.29  12 3.29   8 3.29  10 3.29  12 3.29
   7  0.250  0.250  0.750-   3 2.85   6 2.85   8 2.85   9 2.85  10 2.85  11 2.85  12 2.85  13 2.85
                             5 3.29   4 3.29   4 3.29   5 3.29
   8  0.000  0.000  0.500-   1 2.85   2 2.85   4 2.85   5 2.85   7 2.85  14 2.85  15 2.85  16 2.85
                             6 3.29   9 3.29  11 3.29   6 3.29   9 3.29  11 3.29
   9  0.000  0.500  0.500-   1 2.85   2 2.85   4 2.85   5 2.85   7 2.85  14 2.85  15 2.85  16 2.85
                             3 3.29   8 3.29  10 3.29  10 3.29   8 3.29   3 3.29
  10  0.000  0.500  0.000-   1 2.85   2 2.85   4 2.85   5 2.85   7 2.85  14 2.85  15 2.85  16 2.85
                             6 3.29   9 3.29  13 3.29   9 3.29   6 3.29  13 3.29
  11  0.500  0.000  0.500-   1 2.85   2 2.85   4 2.85   5 2.85   7 2.85  14 2.85  15 2.85  16 2.85
                             3 3.29   8 3.29  12 3.29  12 3.29   3 3.29   8 3.29
  12  0.500  0.000  0.000-   1 2.85   2 2.85   4 2.85   5 2.85   7 2.85  14 2.85  15 2.85  16 2.85
                             6 3.29  11 3.29  13 3.29  11 3.29  13 3.29   6 3.29
  13  0.500  0.500  0.000-   1 2.85   2 2.85   4 2.85   5 2.85   7 2.85  14 2.85  15 2.85  16 2.85
                            12 3.29  10 3.29  12 3.29  10 3.29
  14  0.750  0.250  0.250-   3 2.85   6 2.85   8 2.85   9 2.85  10 2.85  11 2.85  12 2.85  13 2.85
                             5 3.29  16 3.29   5 3.29  16 3.29
  15  0.250  0.750  0.250-   3 2.85   6 2.85   8 2.85   9 2.85  10 2.85  11 2.85  12 2.85  13 2.85
                             4 3.29  16 3.29   4 3.29  16 3.29
  16  0.750  0.750  0.250-   3 2.85   6 2.85   8 2.85   9 2.85  10 2.85  11 2.85  12 2.85  13 2.85
                            14 3.29  15 3.29  14 3.29  15 3.29
 
  LATTYP: Found a simple cubic cell.
 ALAT       =     6.5800000000
  
  Lattice vectors:
  
 A1 = (   6.5800000000,   0.0000000000,   0.0000000000)
 A2 = (   0.0000000000,   6.5800000000,   0.0000000000)
 A3 = (   0.0000000000,   0.0000000000,   6.5800000000)


Analysis of symmetry for initial positions (statically):
=====================================================================
 Subroutine PRICEL returns:
 Original cell was already a primitive cell.
 

 Routine SETGRP: Setting up the symmetry group for a 
 simple cubic supercell.


 Subroutine GETGRP returns: Found  2 space group operations
 (whereof  2 operations were pure point group operations)
 out of a pool of 48 trial point group operations.


The static configuration has the point symmetry C_1h.


Analysis of symmetry for dynamics (positions and initial velocities):
=====================================================================
 Subroutine PRICEL returns:
 Original cell was already a primitive cell.
 

 Routine SETGRP: Setting up the symmetry group for a 
 simple cubic supercell.


 Subroutine GETGRP returns: Found  2 space group operations
 (whereof  2 operations were pure point group operations)
 out of a pool of 48 trial point group operations.


The dynamic configuration has the point symmetry C_1h.


 Subroutine INISYM returns: Found  2 space group operations
 (whereof  2 operations are pure point group operations),
 and found     1 'primitive' translations


----------------------------------------------------------------------------------------

                                     Primitive cell                                     

  volume of cell :     284.8903

  direct lattice vectors                    reciprocal lattice vectors
     6.580000000  0.000000000  0.000000000     0.151975684  0.000000000  0.000000000
     0.000000000  6.580000000  0.000000000     0.000000000  0.151975684  0.000000000
     0.000000000  0.000000000  6.580000000     0.000000000  0.000000000  0.151975684

  length of vectors
     6.580000000  6.580000000  6.580000000     0.151975684  0.151975684  0.151975684

  position of ions in fractional coordinates (direct lattice)
     0.750000000  0.750000000  0.750000000
     0.250000000  0.250000000  0.250000000
     0.500000000  0.500000000  0.500000000
     0.250000000  0.750000000  0.750000000
     0.750000000  0.250000000  0.750000000
     0.000000000  0.000000000  0.000000000
     0.250000000  0.250000000  0.750000000
     0.000000000  0.000000000  0.500000000
     0.000000000  0.500000000  0.500000000
     0.000000000  0.500000000  0.000000000
     0.500000000  0.000000000  0.500000000
     0.500000000  0.000000000  0.000000000
     0.500000000  0.500000000  0.000000000
     0.750000000  0.250000000  0.250000000
     0.250000000  0.750000000  0.250000000
     0.750000000  0.750000000  0.250000000

  ion indices of the primitive-cell ions
   primitive index   ion index
                 1           1
                 2           2
                 3           3
                 4           4
                 5           5
                 6           6
                 7           7
                 8           8
                 9           9
                10          10
                11          11
                12          12
                13          13
                14          14
                15          15
                16          16

----------------------------------------------------------------------------------------

 
 
 KPOINTS: K-Spacing Value to Generate K-Mesh: 0.03

Automatic generation of k-mesh.
 Grid dimensions read from file:
 generate k-points for:    5    5    5

 Generating k-lattice:

  Cartesian coordinates                     Fractional coordinates (reciprocal lattice)
     0.030395137  0.000000000  0.000000000     0.200000000  0.000000000  0.000000000
     0.000000000  0.030395137  0.000000000     0.000000000  0.200000000  0.000000000
     0.000000000  0.000000000  0.030395137     0.000000000  0.000000000  0.200000000

  Length of vectors
     0.030395137  0.030395137  0.030395137

  Shift w.r.t. Gamma in fractional coordinates (k-lattice)
     0.000000000  0.000000000  0.000000000

 
 Subroutine IBZKPT returns following result:
 ===========================================
 
 Found     39 irreducible k-points:
 
 Following reciprocal coordinates:
            Coordinates               Weight
  0.000000  0.000000  0.000000      1.000000
  0.200000  0.000000  0.000000      4.000000
  0.000000  0.000000  0.200000      2.000000
  0.400000  0.000000  0.000000      4.000000
  0.000000  0.000000  0.400000      2.000000
  0.200000  0.200000  0.000000      2.000000
  0.000000  0.200000  0.200000      4.000000
 -0.200000  0.200000  0.000000      2.000000
 -0.200000  0.000000  0.200000      4.000000
  0.400000  0.200000  0.000000      4.000000
  0.000000  0.400000  0.200000      4.000000
  0.200000  0.000000  0.400000      4.000000
 -0.200000  0.400000  0.000000      4.000000
 -0.400000  0.000000  0.200000      4.000000
 -0.200000  0.000000  0.400000      4.000000
  0.400000  0.400000  0.000000      2.000000
  0.000000  0.400000  0.400000      4.000000
 -0.400000  0.400000  0.000000      2.000000
 -0.400000  0.000000  0.400000      4.000000
  0.200000  0.200000  0.200000      2.000000
 -0.200000  0.200000  0.200000      4.000000
 -0.200000 -0.200000  0.200000      2.000000
  0.400000  0.200000  0.200000      4.000000
  0.200000  0.200000  0.400000      2.000000
 -0.200000  0.400000  0.200000      4.000000
 -0.400000  0.200000  0.200000      4.000000
 -0.200000  0.200000  0.400000      4.000000
 -0.400000 -0.200000  0.200000      4.000000
 -0.200000 -0.200000  0.400000      2.000000
  0.400000  0.400000  0.200000      2.000000
  0.200000  0.400000  0.400000      4.000000
 -0.400000  0.400000  0.200000      4.000000
 -0.400000  0.200000  0.400000      4.000000
 -0.200000  0.400000  0.400000      4.000000
 -0.400000 -0.400000  0.200000      2.000000
 -0.200000 -0.400000  0.400000      4.000000
  0.400000  0.400000  0.400000      2.000000
 -0.400000  0.400000  0.400000      4.000000
 -0.400000 -0.400000  0.400000      2.000000
 
 Following cartesian coordinates:
            Coordinates               Weight
  0.000000  0.000000  0.000000      1.000000
  0.030395  0.000000  0.000000      4.000000
  0.000000  0.000000  0.030395      2.000000
  0.060790  0.000000  0.000000      4.000000
  0.000000  0.000000  0.060790      2.000000
  0.030395  0.030395  0.000000      2.000000
  0.000000  0.030395  0.030395      4.000000
 -0.030395  0.030395  0.000000      2.000000
 -0.030395  0.000000  0.030395      4.000000
  0.060790  0.030395  0.000000      4.000000
  0.000000  0.060790  0.030395      4.000000
  0.030395  0.000000  0.060790      4.000000
 -0.030395  0.060790  0.000000      4.000000
 -0.060790  0.000000  0.030395      4.000000
 -0.030395  0.000000  0.060790      4.000000
  0.060790  0.060790  0.000000      2.000000
  0.000000  0.060790  0.060790      4.000000
 -0.060790  0.060790  0.000000      2.000000
 -0.060790  0.000000  0.060790      4.000000
  0.030395  0.030395  0.030395      2.000000
 -0.030395  0.030395  0.030395      4.000000
 -0.030395 -0.030395  0.030395      2.000000
  0.060790  0.030395  0.030395      4.000000
  0.030395  0.030395  0.060790      2.000000
 -0.030395  0.060790  0.030395      4.000000
 -0.060790  0.030395  0.030395      4.000000
 -0.030395  0.030395  0.060790      4.000000
 -0.060790 -0.030395  0.030395      4.000000
 -0.030395 -0.030395  0.060790      2.000000
  0.060790  0.060790  0.030395      2.000000
  0.030395  0.060790  0.060790      4.000000
 -0.060790  0.060790  0.030395      4.000000
 -0.060790  0.030395  0.060790      4.000000
 -0.030395  0.060790  0.060790      4.000000
 -0.060790 -0.060790  0.030395      2.000000
 -0.030395 -0.060790  0.060790      4.000000
  0.060790  0.060790  0.060790      2.000000
 -0.060790  0.060790  0.060790      4.000000
 -0.060790 -0.060790  0.060790      2.000000
 


--------------------------------------------------------------------------------------------------------




 Dimension of arrays:
   k-points           NKPTS =     39   k-points in BZ     NKDIM =     39   number of bands    NBANDS=    124
   number of dos      NEDOS =    301   number of ions     NIONS =     16
   non local maximal  LDIM  =      6   non local SUM 2l+1 LMDIM =     18
   total plane-waves  NPLWV =  46656
   max r-space proj   IRMAX =      1   max aug-charges    IRDMAX=   9546
   dimension x,y,z NGX =    36 NGY =   36 NGZ =   36
   dimension x,y,z NGXF=    72 NGYF=   72 NGZF=   72
   support grid    NGXF=    72 NGYF=   72 NGZF=   72
   ions per type =               3   4   5   4
   NGX,Y,Z   is equivalent  to a cutoff of   9.10,  9.10,  9.10 a.u.
   NGXF,Y,Z  is equivalent  to a cutoff of  18.19, 18.19, 18.19 a.u.

 SYSTEM =  unknown system                          
 POSCAR =  Nb-Mo-Ta-W alloy                        

 Startparameter for this run:
   NWRITE =      2    write-flag & timer
   PREC   = accura    normal or accurate (medium, high low for compatibility)
   ISTART =      0    job   : 0-new  1-cont  2-samecut
   ICHARG =      2    charge: 1-file 2-atom 10-const
   ISPIN  =      1    spin polarized calculation?
   LNONCOLLINEAR =      F non collinear calculations
   LSORBIT =      F    spin-orbit coupling
   INIWAV =      1    electr: 0-lowe 1-rand  2-diag
   LASPH  =      F    aspherical Exc in radial PAW
 Electronic Relaxation 1
   ENCUT  =  250.0 eV  18.37 Ry    4.29 a.u.   8.48  8.48  8.48*2*pi/ulx,y,z
   ENINI  =  250.0     initial cutoff
   ENAUG  =  455.7 eV  augmentation charge cutoff
   NELM   =     80;   NELMIN=  2; NELMDL= -5     # of ELM steps 
   EDIFF  = 0.1E-07   stopping-criterion for ELM
   LREAL  =      F    real-space projection
   NLSPLINE    = F    spline interpolate recip. space projectors
   LCOMPAT=      F    compatible to vasp.4.4
   GGA_COMPAT  = T    GGA compatible to vasp.4.4-vasp.4.6
   LMAXPAW     = -100 max onsite density
   LMAXMIX     =    2 max onsite mixed and CHGCAR
   VOSKOWN=      0    Vosko Wilk Nusair interpolation
   ROPT   =    0.00000   0.00000   0.00000   0.00000
 Ionic relaxation
   EDIFFG = -.1E-01   stopping-criterion for IOM
   NSW    =      0    number of steps for IOM
   NBLOCK =      1;   KBLOCK =      1    inner block; outer block 
   IBRION =     -1    ionic relax: 0-MD 1-quasi-New 2-CG
   NFREE  =      0    steps in history (QN), initial steepest desc. (CG)
   ISIF   =      2    stress and relaxation
   IWAVPR =     10    prediction:  0-non 1-charg 2-wave 3-comb
   ISYM   =      2    0-nonsym 1-usesym 2-fastsym
   LCORR  =      T    Harris-Foulkes like correction to forces

   POTIM  = 0.5000    time-step for ionic-motion
   TEIN   =    0.0    initial temperature
   TEBEG  =    0.0;   TEEND  =   0.0 temperature during run
   SMASS  =  -3.00    Nose mass-parameter (am)
   estimated Nose-frequenzy (Omega)   =  0.10E-29 period in steps = 0.13E+47 mass=  -0.989E-27a.u.
   SCALEE = 1.0000    scale energy and forces
   NPACO  =    256;   APACO  = 10.0  distance and # of slots for P.C.
   PSTRESS=    0.0 pullay stress

  Mass of Ions in am
   POMASS =  92.91 95.94180.95183.85
  Ionic Valenz
   ZVAL   =  13.00 14.00 11.00 14.00
  Atomic Wigner-Seitz radii
   RWIGS  =  -1.00 -1.00 -1.00 -1.00
  virtual crystal weights 
   VCA    =   1.00  1.00  1.00  1.00
   NELECT =     206.0000    total number of electrons
   NUPDOWN=      -1.0000    fix difference up-down

 DOS related values:
   EMIN   =  10.00;   EMAX   =-10.00  energy-range for DOS
   EFERMI =   0.00
   ISMEAR =     0;   SIGMA  =   0.02  broadening in eV -4-tet -1-fermi 0-gaus

 Electronic relaxation 2 (details)
   IALGO  =     38    algorithm
   LDIAG  =      T    sub-space diagonalisation (order eigenvalues)
   LSUBROT=      F    optimize rotation matrix (better conditioning)
   TURBO    =      0    0=normal 1=particle mesh
   IRESTART =      0    0=no restart 2=restart with 2 vectors
   NREBOOT  =      0    no. of reboots
   NMIN     =      0    reboot dimension
   EREF     =   0.00    reference energy to select bands
   IMIX   =      4    mixing-type and parameters
     AMIX     =   0.40;   BMIX     =  1.00
     AMIX_MAG =   1.60;   BMIX_MAG =  1.00
     AMIN     =   0.10
     WC   =   100.;   INIMIX=   1;  MIXPRE=   1;  MAXMIX= -45

 Intra band minimization:
   WEIMIN = 0.0000     energy-eigenvalue tresh-hold
   EBREAK =  0.20E-10  absolut break condition
   DEPER  =   0.30     relativ break condition  

   TIME   =   0.40     timestep for ELM

  volume/ion in A,a.u.               =      17.81       120.16
  Fermi-wavevector in a.u.,A,eV,Ry     =   1.469393  2.776750 29.376560  2.159116
  Thomas-Fermi vector in A             =   2.584776
 
 Write flags
   LWAVE        =      F    write WAVECAR
   LDOWNSAMPLE  =      F    k-point downsampling of WAVECAR
   LCHARG       =      F    write CHGCAR
   LVTOT        =      F    write LOCPOT, total local potential
   LVHAR        =      F    write LOCPOT, Hartree potential only
   LELF         =      F    write electronic localiz. function (ELF)
   LORBIT       =      0    0 simple, 1 ext, 2 COOP (PROOUT), +10 PAW based schemes


 Dipole corrections
   LMONO  =      F    monopole corrections only (constant potential shift)
   LDIPOL =      F    correct potential (dipole corrections)
   IDIPOL =      0    1-x, 2-y, 3-z, 4-all directions 
   EPSILON=  1.0000000 bulk dielectric constant

 Core level calculations are selected ICORELEVEL =  1
 Exchange correlation treatment:
   GGA     =    PE    GGA type
   LEXCH   =     8    internal setting for exchange type
   LIBXC   =     F    Libxc                    
   VOSKOWN =     0    Vosko Wilk Nusair interpolation
   LHFCALC =     F    Hartree Fock is set to
   LHFONE  =     F    Hartree Fock one center treatment
   AEXX    =    0.0000 exact exchange contribution

 Linear response parameters
   LEPSILON=     F    determine dielectric tensor
   LRPA    =     F    only Hartree local field effects (RPA)
   LNABLA  =     F    use nabla operator in PAW spheres
   LVEL    =     F    velocity operator in full k-point grid
   CSHIFT  =0.1000    complex shift for real part using Kramers Kronig
   OMEGAMAX=  -1.0    maximum frequency
   DEG_THRESHOLD= 0.2000000E-02 threshold for treating states as degnerate
   RTIME   =   -0.100 relaxation time in fs
  (WPLASMAI=    0.000 imaginary part of plasma frequency in eV, 0.658/RTIME)
   DFIELD  = 0.0000000 0.0000000 0.0000000 field for delta impulse in time
 
  Optional k-point grid parameters
   LKPOINTS_OPT  =     F    use optional k-point grid
   KPOINTS_OPT_MODE=     1    mode for optional k-point grid
 
 Orbital magnetization related:
   ORBITALMAG=     F  switch on orbital magnetization
   LCHIMAG   =     F  perturbation theory with respect to B field
   DQ        =  0.001000  dq finite difference perturbation B field
   LLRAUG    =     F  two centre corrections for induced B field



--------------------------------------------------------------------------------------------------------


 Static calculation
 charge density and potential will be updated during run
 non-spin polarized calculation
 Variant of blocked Davidson
 Davidson routine will perform the subspace rotation
 perform sub-space diagonalisation
    after iterative eigenvector-optimisation
 modified Broyden-mixing scheme, WC =      100.0
 initial mixing is a Kerker type mixing with AMIX =  0.4000 and BMIX =      1.0000
 Hartree-type preconditioning will be used
 using additional bands           21
 reciprocal scheme for non local part
 use partial core corrections
 calculate Harris-corrections to forces 
   (improved forces if not selfconsistent)
 use gradient corrections 
 use of overlap-Matrix (Vanderbilt PP)
 Gauss-broadening in eV      SIGMA  =   0.02


--------------------------------------------------------------------------------------------------------


  energy-cutoff  :      250.00
  volume of cell :      284.89
      direct lattice vectors                 reciprocal lattice vectors
     6.580000000  0.000000000  0.000000000     0.151975684  0.000000000  0.000000000
     0.000000000  6.580000000  0.000000000     0.000000000  0.151975684  0.000000000
     0.000000000  0.000000000  6.580000000     0.000000000  0.000000000  0.151975684

  length of vectors
     6.580000000  6.580000000  6.580000000     0.151975684  0.151975684  0.151975684


 
 k-points in units of 2pi/SCALE and weight: K-Spacing Value to Generate K-Mesh: 0.03
   0.00000000  0.00000000  0.00000000       0.008
   0.03039514  0.00000000  0.00000000       0.032
   0.00000000  0.00000000  0.03039514       0.016
   0.06079027  0.00000000  0.00000000       0.032
   0.00000000  0.00000000  0.06079027       0.016
   0.03039514  0.03039514  0.00000000       0.016
   0.00000000  0.03039514  0.03039514       0.032
  -0.03039514  0.03039514  0.00000000       0.016
  -0.03039514  0.00000000  0.03039514       0.032
   0.06079027  0.03039514  0.00000000       0.032
   0.00000000  0.06079027  0.03039514       0.032
   0.03039514  0.00000000  0.06079027       0.032
  -0.03039514  0.06079027  0.00000000       0.032
  -0.06079027  0.00000000  0.03039514       0.032
  -0.03039514  0.00000000  0.06079027       0.032
   0.06079027  0.06079027  0.00000000       0.016
   0.00000000  0.06079027  0.06079027       0.032
  -0.06079027  0.06079027  0.00000000       0.016
  -0.06079027  0.00000000  0.06079027       0.032
   0.03039514  0.03039514  0.03039514       0.016
  -0.03039514  0.03039514  0.03039514       0.032
  -0.03039514 -0.03039514  0.03039514       0.016
   0.06079027  0.03039514  0.03039514       0.032
   0.03039514  0.03039514  0.06079027       0.016
  -0.03039514  0.06079027  0.03039514       0.032
  -0.06079027  0.03039514  0.03039514       0.032
  -0.03039514  0.03039514  0.06079027       0.032
  -0.06079027 -0.03039514  0.03039514       0.032
  -0.03039514 -0.03039514  0.06079027       0.016
   0.06079027  0.06079027  0.03039514       0.016
   0.03039514  0.06079027  0.06079027       0.032
  -0.06079027  0.06079027  0.03039514       0.032
  -0.06079027  0.03039514  0.06079027       0.032
  -0.03039514  0.06079027  0.06079027       0.032
  -0.06079027 -0.06079027  0.03039514       0.016
  -0.03039514 -0.06079027  0.06079027       0.032
   0.06079027  0.06079027  0.06079027       0.016
  -0.06079027  0.06079027  0.06079027       0.032
  -0.06079027 -0.06079027  0.06079027       0.016
 
 k-points in reciprocal lattice and weights: K-Spacing Value to Generate K-Mesh: 0.03
   0.00000000  0.00000000  0.00000000       0.008
   0.20000000  0.00000000  0.00000000       0.032
   0.00000000  0.00000000  0.20000000       0.016
   0.40000000  0.00000000  0.00000000       0.032
   0.00000000  0.00000000  0.40000000       0.016
   0.20000000  0.20000000  0.00000000       0.016
   0.00000000  0.20000000  0.20000000       0.032
  -0.20000000  0.20000000  0.00000000       0.016
  -0.20000000  0.00000000  0.20000000       0.032
   0.40000000  0.20000000  0.00000000       0.032
   0.00000000  0.40000000  0.20000000       0.032
   0.20000000  0.00000000  0.40000000       0.032
  -0.20000000  0.40000000  0.00000000       0.032
  -0.40000000  0.00000000  0.20000000       0.032
  -0.20000000  0.00000000  0.40000000       0.032
   0.40000000  0.40000000  0.00000000       0.016
   0.00000000  0.40000000  0.40000000       0.032
  -0.40000000  0.40000000  0.00000000       0.016
  -0.40000000  0.00000000  0.40000000       0.032
   0.20000000  0.20000000  0.20000000       0.016
  -0.20000000  0.20000000  0.20000000       0.032
  -0.20000000 -0.20000000  0.20000000       0.016
   0.40000000  0.20000000  0.20000000       0.032
   0.20000000  0.20000000  0.40000000       0.016
  -0.20000000  0.40000000  0.20000000       0.032
  -0.40000000  0.20000000  0.20000000       0.032
  -0.20000000  0.20000000  0.40000000       0.032
  -0.40000000 -0.20000000  0.20000000       0.032
  -0.20000000 -0.20000000  0.40000000       0.016
   0.40000000  0.40000000  0.20000000       0.016
   0.20000000  0.40000000  0.40000000       0.032
  -0.40000000  0.40000000  0.20000000       0.032
  -0.40000000  0.20000000  0.40000000       0.032
  -0.20000000  0.40000000  0.40000000       0.032
  -0.40000000 -0.40000000  0.20000000       0.016
  -0.20000000 -0.40000000  0.40000000       0.032
   0.40000000  0.40000000  0.40000000       0.016
  -0.40000000  0.40000000  0.40000000       0.032
  -0.40000000 -0.40000000  0.40000000       0.016
 
 position of ions in fractional coordinates (direct lattice) 
   0.75000000  0.75000000  0.75000000
   0.25000000  0.25000000  0.25000000
   0.50000000  0.50000000  0.50000000
   0.25000000  0.75000000  0.75000000
   0.75000000  0.25000000  0.75000000
   0.00000000  0.00000000  0.00000000
   0.25000000  0.25000000  0.75000000
   0.00000000  0.00000000  0.50000000
   0.00000000  0.50000000  0.50000000
   0.00000000  0.50000000  0.00000000
   0.50000000  0.00000000  0.50000000
   0.50000000  0.00000000  0.00000000
   0.50000000  0.50000000  0.00000000
   0.75000000  0.25000000  0.25000000
   0.25000000  0.75000000  0.25000000
   0.75000000  0.75000000  0.25000000
 
 position of ions in cartesian coordinates  (Angst):
   4.93500000  4.93500000  4.93500000
   1.64500000  1.64500000  1.64500000
   3.29000000  3.29000000  3.29000000
   1.64500000  4.93500000  4.93500000
   4.93500000  1.64500000  4.93500000
   0.00000000  0.00000000  0.00000000
   1.64500000  1.64500000  4.93500000
   0.00000000  0.00000000  3.29000000
   0.00000000  3.29000000  3.29000000
   0.00000000  3.29000000  0.00000000
   3.29000000  0.00000000  3.29000000
   3.29000000  0.00000000  0.00000000
   3.29000000  3.29000000  0.00000000
   4.93500000  1.64500000  1.64500000
   1.64500000  4.93500000  1.64500000
   4.93500000  4.93500000  1.64500000
 


--------------------------------------------------------------------------------------------------------


 k-point   1 :   0.0000 0.0000 0.0000  plane waves:    2517
 k-point   2 :   0.2000 0.0000 0.0000  plane waves:    2545
 k-point   3 :   0.0000 0.0000 0.2000  plane waves:    2545
 k-point   4 :   0.4000 0.0000 0.0000  plane waves:    2569
 k-point   5 :   0.0000 0.0000 0.4000  plane waves:    2569
 k-point   6 :   0.2000 0.2000 0.0000  plane waves:    2562
 k-point   7 :   0.0000 0.2000 0.2000  plane waves:    2562
 k-point   8 :  -0.2000 0.2000 0.0000  plane waves:    2562
 k-point   9 :  -0.2000 0.0000 0.2000  plane waves:    2562
 k-point  10 :   0.4000 0.2000 0.0000  plane waves:    2566
 k-point  11 :   0.0000 0.4000 0.2000  plane waves:    2566
 k-point  12 :   0.2000 0.0000 0.4000  plane waves:    2566
 k-point  13 :  -0.2000 0.4000 0.0000  plane waves:    2566
 k-point  14 :  -0.4000 0.0000 0.2000  plane waves:    2566
 k-point  15 :  -0.2000 0.0000 0.4000  plane waves:    2566
 k-point  16 :   0.4000 0.4000 0.0000  plane waves:    2570
 k-point  17 :   0.0000 0.4000 0.4000  plane waves:    2570
 k-point  18 :  -0.4000 0.4000 0.0000  plane waves:    2570
 k-point  19 :  -0.4000 0.0000 0.4000  plane waves:    2570
 k-point  20 :   0.2000 0.2000 0.2000  plane waves:    2572
 k-point  21 :  -0.2000 0.2000 0.2000  plane waves:    2572
 k-point  22 :  -0.2000-0.2000 0.2000  plane waves:    2572
 k-point  23 :   0.4000 0.2000 0.2000  plane waves:    2546
 k-point  24 :   0.2000 0.2000 0.4000  plane waves:    2546
 k-point  25 :  -0.2000 0.4000 0.2000  plane waves:    2546
 k-point  26 :  -0.4000 0.2000 0.2000  plane waves:    2546
 k-point  27 :  -0.2000 0.2000 0.4000  plane waves:    2546
 k-point  28 :  -0.4000-0.2000 0.2000  plane waves:    2546
 k-point  29 :  -0.2000-0.2000 0.4000  plane waves:    2546
 k-point  30 :   0.4000 0.4000 0.2000  plane waves:    2549
 k-point  31 :   0.2000 0.4000 0.4000  plane waves:    2549
 k-point  32 :  -0.4000 0.4000 0.2000  plane waves:    2549
 k-point  33 :  -0.4000 0.2000 0.4000  plane waves:    2549
 k-point  34 :  -0.2000 0.4000 0.4000  plane waves:    2549
 k-point  35 :  -0.4000-0.4000 0.2000  plane waves:    2549
 k-point  36 :  -0.2000-0.4000 0.4000  plane waves:    2549
 k-point  37 :   0.4000 0.4000 0.4000  plane waves:    2533
 k-point  38 :  -0.4000 0.4000 0.4000  plane waves:    2533
 k-point  39 :  -0.4000-0.4000 0.4000  plane waves:    2533

 maximum and minimum number of plane-waves per node :       235      194

 maximum number of plane-waves:      2572
 maximum index in each direction: 
   IXMAX=    8   IYMAX=    8   IZMAX=    8
   IXMIN=   -8   IYMIN=   -8   IZMIN=   -8


 parallel 3D FFT for wavefunctions:
    minimum data exchange during FFTs selected (reduces bandwidth)
 parallel 3D FFT for charge:
    minimum data exchange during FFTs selected (reduces bandwidth)


 total amount of memory used by VASP MPI-rank0    41692. kBytes
=======================================================================

   base      :      30000. kBytes
   nonl-proj :       5180. kBytes
   fftplans  :        456. kBytes
   grid      :        919. kBytes
   one-center:         31. kBytes
   wavefun   :       5106. kBytes
 
     INWAV:  cpu time      0.0000: real time      0.0000
 Broyden mixing: mesh for mixing (old mesh)
   NGX = 17   NGY = 17   NGZ = 17
  (NGX  = 72   NGY  = 72   NGZ  = 72)
  gives a total of   4913 points

 initial charge density was supplied:
 charge density of overlapping atoms calculated
 number of electron     206.0000000 magnetization 
 keeping initial charge density in first step


--------------------------------------------------------------------------------------------------------


 Maximum index for augmentation-charges          517 (set IRDMAX)


--------------------------------------------------------------------------------------------------------


 First call to EWALD:  gamma=   0.269
 Maximum number of real-space cells 3x 3x 3
 Maximum number of reciprocal cells 3x 3x 3

    FEWALD:  cpu time      0.0012: real time      0.0012


--------------------------------------- Iteration      1(   1)  ---------------------------------------


    POTLOK:  cpu time      0.0131: real time      0.5293
    SETDIJ:  cpu time      0.0054: real time      0.0055
     EDDAV:  cpu time      1.9246: real time      1.9330
       DOS:  cpu time      0.0042: real time      0.0043
    --------------------------------------------
      LOOP:  cpu time      1.9473: real time      2.4721

 eigenvalue-minimisations  : 10024
 total energy-change (2. order) : 0.1895817E+04  (-0.8020354E+04)
 number of electron     206.0000000 magnetization 
 augmentation part      206.0000000 magnetization 

 Free energy of the ion-electron system (eV)
  ---------------------------------------------------
  alpha Z        PSCENC =      1877.79436010
  Ewald energy   TEWEN  =    -21224.26507339
  -Hartree energ DENC   =     -3930.53677497
  -exchange      EXHF   =         0.00000000
  -V(xc)+E(xc)   XCENC  =       782.82723669
  PAW double counting   =     19651.26679952   -19347.55439239
  entropy T*S    EENTRO =        -0.00103614
  eigenvalues    EBANDS =      -725.22312802
  atomic energy  EATOM  =     24811.50853993
  Solvation  Ediel_sol  =         0.00000000
  ---------------------------------------------------
  free energy    TOTEN  =      1895.81653132 eV

  energy without entropy =     1895.81756746  energy(sigma->0) =     1895.81704939


--------------------------------------------------------------------------------------------------------




--------------------------------------- Iteration      1(   2)  ---------------------------------------


     EDDAV:  cpu time      1.9256: real time      1.9346
       DOS:  cpu time      0.0029: real time      0.0029
    --------------------------------------------
      LOOP:  cpu time      1.9285: real time      1.9375

 eigenvalue-minimisations  : 10032
 total energy-change (2. order) :-0.1925708E+04  (-0.1862370E+04)
 number of electron     206.0000000 magnetization 
 augmentation part      206.0000000 magnetization 

 Free energy of the ion-electron system (eV)
  ---------------------------------------------------
  alpha Z        PSCENC =      1877.79436010
  Ewald energy   TEWEN  =    -21224.26507339
  -Hartree energ DENC   =     -3930.53677497
  -exchange      EXHF   =         0.00000000
  -V(xc)+E(xc)   XCENC  =       782.82723669
  PAW double counting   =     19651.26679952   -19347.55439239
  entropy T*S    EENTRO =        -0.00230076
  eigenvalues    EBANDS =     -2650.93022353
  atomic energy  EATOM  =     24811.50853993
  Solvation  Ediel_sol  =         0.00000000
  ---------------------------------------------------
  free energy    TOTEN  =       -29.89182881 eV

  energy without entropy =      -29.88952805  energy(sigma->0) =      -29.89067843


--------------------------------------------------------------------------------------------------------




--------------------------------------- Iteration      1(   3)  ---------------------------------------


     EDDAV:  cpu time      2.5140: real time      2.5248
       DOS:  cpu time      0.0030: real time      0.0030
    --------------------------------------------
      LOOP:  cpu time      2.5170: real time      2.5278

 eigenvalue-minimisations  : 14352
 total energy-change (2. order) :-0.1561091E+03  (-0.1472923E+03)
 number of electron     206.0000000 magnetization 
 augmentation part      206.0000000 magnetization 

 Free energy of the ion-electron system (eV)
  ---------------------------------------------------
  alpha Z        PSCENC =      1877.79436010
  Ewald energy   TEWEN  =    -21224.26507339
  -Hartree energ DENC   =     -3930.53677497
  -exchange      EXHF   =         0.00000000
  -V(xc)+E(xc)   XCENC  =       782.82723669
  PAW double counting   =     19651.26679952   -19347.55439239
  entropy T*S    EENTRO =        -0.00262339
  eigenvalues    EBANDS =     -2807.03895500
  atomic energy  EATOM  =     24811.50853993
  Solvation  Ediel_sol  =         0.00000000
  ---------------------------------------------------
  free energy    TOTEN  =      -186.00088291 eV

  energy without entropy =     -185.99825952  energy(sigma->0) =     -185.99957121


--------------------------------------------------------------------------------------------------------




--------------------------------------- Iteration      1(   4)  ---------------------------------------


     EDDAV:  cpu time      2.4751: real time      2.4855
       DOS:  cpu time      0.0029: real time      0.0029
    --------------------------------------------
      LOOP:  cpu time      2.4779: real time      2.4883

 eigenvalue-minimisations  : 14136
 total energy-change (2. order) :-0.9159622E+01  (-0.8884439E+01)
 number of electron     206.0000000 magnetization 
 augmentation part      206.0000000 magnetization 

 Free energy of the ion-electron system (eV)
  ---------------------------------------------------
  alpha Z        PSCENC =      1877.79436010
  Ewald energy   TEWEN  =    -21224.26507339
  -Hartree energ DENC   =     -3930.53677497
  -exchange      EXHF   =         0.00000000
  -V(xc)+E(xc)   XCENC  =       782.82723669
  PAW double counting   =     19651.26679952   -19347.55439239
  entropy T*S    EENTRO =        -0.00253968
  eigenvalues    EBANDS =     -2816.19866039
  atomic energy  EATOM  =     24811.50853993
  Solvation  Ediel_sol  =         0.00000000
  ---------------------------------------------------
  free energy    TOTEN  =      -195.16050458 eV

  energy without entropy =     -195.15796491  energy(sigma->0) =     -195.15923474


--------------------------------------------------------------------------------------------------------




--------------------------------------- Iteration      1(   5)  ---------------------------------------


     EDDAV:  cpu time      2.5878: real time      2.5992
       DOS:  cpu time      0.0029: real time      0.0029
    CHARGE:  cpu time      0.0570: real time      0.0572
    MIXING:  cpu time      0.0004: real time      0.0004
    --------------------------------------------
      LOOP:  cpu time      2.6482: real time      2.6597

 eigenvalue-minimisations  : 15000
 total energy-change (2. order) :-0.5554030E+00  (-0.5510487E+00)
 number of electron     205.9999822 magnetization 
 augmentation part       45.2840106 magnetization 

 Broyden mixing:
  rms(total) = 0.54507E+01    rms(broyden)= 0.54497E+01
  rms(prec ) = 0.59539E+01
  weight for this iteration     100.00

 Free energy of the ion-electron system (eV)
  ---------------------------------------------------
  alpha Z        PSCENC =      1877.79436010
  Ewald energy   TEWEN  =    -21224.26507339
  -Hartree energ DENC   =     -3930.53677497
  -exchange      EXHF   =         0.00000000
  -V(xc)+E(xc)   XCENC  =       782.82723669
  PAW double counting   =     19651.26679952   -19347.55439239
  entropy T*S    EENTRO =        -0.00284313
  eigenvalues    EBANDS =     -2816.75375998
  atomic energy  EATOM  =     24811.50853993
  Solvation  Ediel_sol  =         0.00000000
  ---------------------------------------------------
  free energy    TOTEN  =      -195.71590763 eV

  energy without entropy =     -195.71306450  energy(sigma->0) =     -195.71448607


--------------------------------------------------------------------------------------------------------




--------------------------------------- Iteration      1(   6)  ---------------------------------------


    POTLOK:  cpu time      0.0052: real time      0.0054
    SETDIJ:  cpu time      0.0019: real time      0.0019
     EDDAV:  cpu time      2.1161: real time      2.1257
       DOS:  cpu time      0.0029: real time      0.0029
    CHARGE:  cpu time      0.0565: real time      0.0567
    MIXING:  cpu time      0.0003: real time      0.0003
    --------------------------------------------
      LOOP:  cpu time      2.1829: real time      2.1928

 eigenvalue-minimisations  : 11464
 total energy-change (2. order) : 0.7540895E+01  (-0.1896255E+01)
 number of electron     205.9999812 magnetization 
 augmentation part       46.9203111 magnetization 

 Broyden mixing:
  rms(total) = 0.20934E+01    rms(broyden)= 0.20931E+01
  rms(prec ) = 0.24561E+01
  weight for this iteration     100.00

 eigenvalues of (default mixing * dielectric matrix)
  average eigenvalue GAMMA=   1.4757
  1.4757

 Free energy of the ion-electron system (eV)
  ---------------------------------------------------
  alpha Z        PSCENC =      1877.79436010
  Ewald energy   TEWEN  =    -21224.26507339
  -Hartree energ DENC   =     -3712.04220349
  -exchange      EXHF   =         0.00000000
  -V(xc)+E(xc)   XCENC  =       772.09892992
  PAW double counting   =     23466.79928332   -23192.11389091
  entropy T*S    EENTRO =        -0.00298102
  eigenvalues    EBANDS =     -2987.95197663
  atomic energy  EATOM  =     24811.50853993
  Solvation  Ediel_sol  =         0.00000000
  ---------------------------------------------------
  free energy    TOTEN  =      -188.17501218 eV

  energy without entropy =     -188.17203116  energy(sigma->0) =     -188.17352167


--------------------------------------------------------------------------------------------------------




--------------------------------------- Iteration      1(   7)  ---------------------------------------


    POTLOK:  cpu time      0.0046: real time      0.0048
    SETDIJ:  cpu time      0.0018: real time      0.0018
     EDDAV:  cpu time      2.3634: real time      2.3738
       DOS:  cpu time      0.0029: real time      0.0029
    CHARGE:  cpu time      0.0560: real time      0.0562
    MIXING:  cpu time      0.0003: real time      0.0003
    --------------------------------------------
      LOOP:  cpu time      2.4289: real time      2.4397

 eigenvalue-minimisations  : 13336
 total energy-change (2. order) : 0.2723573E+00  (-0.1317074E+01)
 number of electron     205.9999818 magnetization 
 augmentation part       46.9775950 magnetization 

 Broyden mixing:
  rms(total) = 0.96297E+00    rms(broyden)= 0.96273E+00
  rms(prec ) = 0.20505E+01
  weight for this iteration     100.00

 eigenvalues of (default mixing * dielectric matrix)
  average eigenvalue GAMMA=   1.1541
  1.6676  0.6407

 Free energy of the ion-electron system (eV)
  ---------------------------------------------------
  alpha Z        PSCENC =      1877.79436010
  Ewald energy   TEWEN  =    -21224.26507339
  -Hartree energ DENC   =     -3637.24513234
  -exchange      EXHF   =         0.00000000
  -V(xc)+E(xc)   XCENC  =       767.96506100
  PAW double counting   =     26135.65883133   -25873.44861167
  entropy T*S    EENTRO =        -0.00305853
  eigenvalues    EBANDS =     -3045.86757127
  atomic energy  EATOM  =     24811.50853993
  Solvation  Ediel_sol  =         0.00000000
  ---------------------------------------------------
  free energy    TOTEN  =      -187.90265484 eV

  energy without entropy =     -187.89959631  energy(sigma->0) =     -187.90112558


--------------------------------------------------------------------------------------------------------




--------------------------------------- Iteration      1(   8)  ---------------------------------------


    POTLOK:  cpu time      0.0097: real time      3.4624
    SETDIJ:  cpu time      0.0027: real time      0.0027
     EDDAV:  cpu time      2.2565: real time      2.2666
       DOS:  cpu time      0.0029: real time      0.0029
    CHARGE:  cpu time      0.0565: real time      0.0567
    MIXING:  cpu time      0.0002: real time      0.0003
    --------------------------------------------
      LOOP:  cpu time      2.3286: real time      5.7916

 eigenvalue-minimisations  : 12348
 total energy-change (2. order) : 0.1603476E+01  (-0.5732517E+00)
 number of electron     205.9999814 magnetization 
 augmentation part       47.3503944 magnetization 

 Broyden mixing:
  rms(total) = 0.37866E+00    rms(broyden)= 0.37812E+00
  rms(prec ) = 0.62542E+00
  weight for this iteration     100.00

 eigenvalues of (default mixing * dielectric matrix)
  average eigenvalue GAMMA=   1.1133
  1.8024  1.1025  0.4350

 Free energy of the ion-electron system (eV)
  ---------------------------------------------------
  alpha Z        PSCENC =      1877.79436010
  Ewald energy   TEWEN  =    -21224.26507339
  -Hartree energ DENC   =     -3602.56371428
  -exchange      EXHF   =         0.00000000
  -V(xc)+E(xc)   XCENC  =       766.44812965
  PAW double counting   =     26936.31811242   -26678.91495386
  entropy T*S    EENTRO =        -0.00168916
  eigenvalues    EBANDS =     -3072.62289019
  atomic energy  EATOM  =     24811.50853993
  Solvation  Ediel_sol  =         0.00000000
  ---------------------------------------------------
  free energy    TOTEN  =      -186.29917878 eV

  energy without entropy =     -186.29748962  energy(sigma->0) =     -186.29833420


--------------------------------------------------------------------------------------------------------




--------------------------------------- Iteration      1(   9)  ---------------------------------------


    POTLOK:  cpu time      0.0044: real time      0.0046
    SETDIJ:  cpu time      0.0018: real time      0.0018
     EDDAV:  cpu time      2.2813: real time      2.2911
       DOS:  cpu time      0.0030: real time      0.0030
    CHARGE:  cpu time      0.0559: real time      0.0561
    MIXING:  cpu time      0.0003: real time      0.0003
    --------------------------------------------
      LOOP:  cpu time      2.3467: real time      2.3569

 eigenvalue-minimisations  : 12720
 total energy-change (2. order) : 0.1179380E-01  (-0.1265058E+00)
 number of electron     205.9999815 magnetization 
 augmentation part       47.4162381 magnetization 

 Broyden mixing:
  rms(total) = 0.27623E+00    rms(broyden)= 0.27617E+00
  rms(prec ) = 0.41063E+00
  weight for this iteration     100.00

 eigenvalues of (default mixing * dielectric matrix)
  average eigenvalue GAMMA=   1.1432
  1.9935  1.6078  0.5905  0.3810

 Free energy of the ion-electron system (eV)
  ---------------------------------------------------
  alpha Z        PSCENC =      1877.79436010
  Ewald energy   TEWEN  =    -21224.26507339
  -Hartree energ DENC   =     -3597.04772826
  -exchange      EXHF   =         0.00000000
  -V(xc)+E(xc)   XCENC  =       766.21175920
  PAW double counting   =     27268.37160374   -27011.43175979
  entropy T*S    EENTRO =        -0.00215490
  eigenvalues    EBANDS =     -3077.42693160
  atomic energy  EATOM  =     24811.50853993
  Solvation  Ediel_sol  =         0.00000000
  ---------------------------------------------------
  free energy    TOTEN  =      -186.28738498 eV

  energy without entropy =     -186.28523007  energy(sigma->0) =     -186.28630753


--------------------------------------------------------------------------------------------------------




--------------------------------------- Iteration      1(  10)  ---------------------------------------


    POTLOK:  cpu time      0.0044: real time      0.0046
    SETDIJ:  cpu time      0.0017: real time      0.0017
     EDDAV:  cpu time      2.2696: real time      2.2793
       DOS:  cpu time      0.0028: real time      0.0028
    CHARGE:  cpu time      0.0560: real time      0.0562
    MIXING:  cpu time      0.0003: real time      0.0003
    --------------------------------------------
      LOOP:  cpu time      2.3349: real time      2.3449

 eigenvalue-minimisations  : 12712
 total energy-change (2. order) : 0.3503524E-01  (-0.2852351E-01)
 number of electron     205.9999815 magnetization 
 augmentation part       47.3673197 magnetization 

 Broyden mixing:
  rms(total) = 0.12799E+00    rms(broyden)= 0.12794E+00
  rms(prec ) = 0.18597E+00
  weight for this iteration     100.00

 eigenvalues of (default mixing * dielectric matrix)
  average eigenvalue GAMMA=   1.1847
  2.4700  1.7477  0.8649  0.4633  0.3775

 Free energy of the ion-electron system (eV)
  ---------------------------------------------------
  alpha Z        PSCENC =      1877.79436010
  Ewald energy   TEWEN  =    -21224.26507339
  -Hartree energ DENC   =     -3598.08383754
  -exchange      EXHF   =         0.00000000
  -V(xc)+E(xc)   XCENC  =       766.23466101
  PAW double counting   =     27532.00913070   -27274.53656706
  entropy T*S    EENTRO =        -0.00193820
  eigenvalues    EBANDS =     -3076.91162528
  atomic energy  EATOM  =     24811.50853993
  Solvation  Ediel_sol  =         0.00000000
  ---------------------------------------------------
  free energy    TOTEN  =      -186.25234974 eV

  energy without entropy =     -186.25041154  energy(sigma->0) =     -186.25138064


--------------------------------------------------------------------------------------------------------




--------------------------------------- Iteration      1(  11)  ---------------------------------------


    POTLOK:  cpu time      0.0044: real time      0.0046
    SETDIJ:  cpu time      0.0017: real time      0.0017
     EDDAV:  cpu time      2.3291: real time      2.3401
       DOS:  cpu time      0.0027: real time      0.0027
    CHARGE:  cpu time      0.0561: real time      0.0563
    MIXING:  cpu time      0.0003: real time      0.0003
    --------------------------------------------
      LOOP:  cpu time      2.3943: real time      2.4057

 eigenvalue-minimisations  : 13140
 total energy-change (2. order) : 0.2412961E-02  (-0.7846271E-02)
 number of electron     205.9999815 magnetization 
 augmentation part       47.3370387 magnetization 

 Broyden mixing:
  rms(total) = 0.45418E-01    rms(broyden)= 0.45356E-01
  rms(prec ) = 0.10000E+00
  weight for this iteration     100.00

 eigenvalues of (default mixing * dielectric matrix)
  average eigenvalue GAMMA=   1.0860
  2.5085  1.7407  0.9011  0.4967  0.4967  0.3724

 Free energy of the ion-electron system (eV)
  ---------------------------------------------------
  alpha Z        PSCENC =      1877.79436010
  Ewald energy   TEWEN  =    -21224.26507339
  -Hartree energ DENC   =     -3600.04074710
  -exchange      EXHF   =         0.00000000
  -V(xc)+E(xc)   XCENC  =       766.33011809
  PAW double counting   =     27651.65071179   -27393.46399998
  entropy T*S    EENTRO =        -0.00195599
  eigenvalues    EBANDS =     -3075.76189022
  atomic energy  EATOM  =     24811.50853993
  Solvation  Ediel_sol  =         0.00000000
  ---------------------------------------------------
  free energy    TOTEN  =      -186.24993678 eV

  energy without entropy =     -186.24798079  energy(sigma->0) =     -186.24895879


--------------------------------------------------------------------------------------------------------




--------------------------------------- Iteration      1(  12)  ---------------------------------------


    POTLOK:  cpu time      0.0044: real time      0.0046
    SETDIJ:  cpu time      0.0017: real time      0.0017
     EDDAV:  cpu time      2.3140: real time      2.3244
       DOS:  cpu time      0.0030: real time      0.0030
    CHARGE:  cpu time      0.0559: real time      0.0561
    MIXING:  cpu time      0.0003: real time      0.0003
    --------------------------------------------
      LOOP:  cpu time      2.3794: real time      2.3902

 eigenvalue-minimisations  : 12976
 total energy-change (2. order) : 0.2862639E-02  (-0.2132219E-02)
 number of electron     205.9999816 magnetization 
 augmentation part       47.3366499 magnetization 

 Broyden mixing:
  rms(total) = 0.20466E-01    rms(broyden)= 0.20424E-01
  rms(prec ) = 0.45638E-01
  weight for this iteration     100.00

 eigenvalues of (default mixing * dielectric matrix)
  average eigenvalue GAMMA=   1.0501
  2.4918  1.7489  0.9093  0.9093  0.4906  0.3726  0.4284

 Free energy of the ion-electron system (eV)
  ---------------------------------------------------
  alpha Z        PSCENC =      1877.79436010
  Ewald energy   TEWEN  =    -21224.26507339
  -Hartree energ DENC   =     -3600.49940644
  -exchange      EXHF   =         0.00000000
  -V(xc)+E(xc)   XCENC  =       766.35715580
  PAW double counting   =     27690.34871198   -27431.81275405
  entropy T*S    EENTRO =        -0.00214098
  eigenvalues    EBANDS =     -3075.67646708
  atomic energy  EATOM  =     24811.50853993
  Solvation  Ediel_sol  =         0.00000000
  ---------------------------------------------------
  free energy    TOTEN  =      -186.24707414 eV

  energy without entropy =     -186.24493316  energy(sigma->0) =     -186.24600365


--------------------------------------------------------------------------------------------------------




--------------------------------------- Iteration      1(  13)  ---------------------------------------


    POTLOK:  cpu time      0.0044: real time      0.0046
    SETDIJ:  cpu time      0.0017: real time      0.0017
     EDDAV:  cpu time      2.3347: real time      2.3459
       DOS:  cpu time      0.0029: real time      0.0029
    CHARGE:  cpu time      0.0561: real time      0.0563
    MIXING:  cpu time      0.0003: real time      0.0003
    --------------------------------------------
      LOOP:  cpu time      2.4001: real time      2.4117

 eigenvalue-minimisations  : 13124
 total energy-change (2. order) : 0.5428211E-03  (-0.4647008E-03)
 number of electron     205.9999815 magnetization 
 augmentation part       47.3414127 magnetization 

 Broyden mixing:
  rms(total) = 0.11422E-01    rms(broyden)= 0.11410E-01
  rms(prec ) = 0.18506E-01
  weight for this iteration     100.00

 eigenvalues of (default mixing * dielectric matrix)
  average eigenvalue GAMMA=   1.0662
  2.5176  1.8482  1.4415  0.9446  0.5054  0.5054  0.3726  0.3947

 Free energy of the ion-electron system (eV)
  ---------------------------------------------------
  alpha Z        PSCENC =      1877.79436010
  Ewald energy   TEWEN  =    -21224.26507339
  -Hartree energ DENC   =     -3600.28622934
  -exchange      EXHF   =         0.00000000
  -V(xc)+E(xc)   XCENC  =       766.34857672
  PAW double counting   =     27698.78033479   -27440.13383339
  entropy T*S    EENTRO =        -0.00215349
  eigenvalues    EBANDS =     -3075.99105324
  atomic energy  EATOM  =     24811.50853993
  Solvation  Ediel_sol  =         0.00000000
  ---------------------------------------------------
  free energy    TOTEN  =      -186.24653132 eV

  energy without entropy =     -186.24437783  energy(sigma->0) =     -186.24545457


--------------------------------------------------------------------------------------------------------




--------------------------------------- Iteration      1(  14)  ---------------------------------------


    POTLOK:  cpu time      0.0045: real time      0.0046
    SETDIJ:  cpu time      0.0017: real time      0.0017
     EDDAV:  cpu time      2.2685: real time      2.2789
       DOS:  cpu time      0.0029: real time      0.0029
    CHARGE:  cpu time      0.0556: real time      0.0558
    MIXING:  cpu time      0.0004: real time      0.0004
    --------------------------------------------
      LOOP:  cpu time      2.3336: real time      2.3444

 eigenvalue-minimisations  : 12688
 total energy-change (2. order) : 0.9792270E-04  (-0.9458804E-04)
 number of electron     205.9999815 magnetization 
 augmentation part       47.3432286 magnetization 

 Broyden mixing:
  rms(total) = 0.69551E-02    rms(broyden)= 0.69524E-02
  rms(prec ) = 0.99103E-02
  weight for this iteration     100.00

 eigenvalues of (default mixing * dielectric matrix)
  average eigenvalue GAMMA=   1.0582
  2.6306  1.9973  1.5650  0.9575  0.6101  0.5205  0.4849  0.3660  0.3917

 Free energy of the ion-electron system (eV)
  ---------------------------------------------------
  alpha Z        PSCENC =      1877.79436010
  Ewald energy   TEWEN  =    -21224.26507339
  -Hartree energ DENC   =     -3600.17307470
  -exchange      EXHF   =         0.00000000
  -V(xc)+E(xc)   XCENC  =       766.34316486
  PAW double counting   =     27707.16531953   -27448.36640771
  entropy T*S    EENTRO =        -0.00215704
  eigenvalues    EBANDS =     -3076.25110498
  atomic energy  EATOM  =     24811.50853993
  Solvation  Ediel_sol  =         0.00000000
  ---------------------------------------------------
  free energy    TOTEN  =      -186.24643340 eV

  energy without entropy =     -186.24427636  energy(sigma->0) =     -186.24535488


--------------------------------------------------------------------------------------------------------




--------------------------------------- Iteration      1(  15)  ---------------------------------------


    POTLOK:  cpu time      0.0045: real time      0.0047
    SETDIJ:  cpu time      0.0018: real time      0.0018
     EDDAV:  cpu time      2.3177: real time      2.3279
       DOS:  cpu time      0.0030: real time      0.0030
    CHARGE:  cpu time      0.0557: real time      0.0559
    MIXING:  cpu time      0.0004: real time      0.0004
    --------------------------------------------
      LOOP:  cpu time      2.3830: real time      2.3937

 eigenvalue-minimisations  : 13048
 total energy-change (2. order) :-0.1777677E-05  (-0.2576379E-04)
 number of electron     205.9999815 magnetization 
 augmentation part       47.3456292 magnetization 

 Broyden mixing:
[...]
     25     -26.0215      2.00000
     26     -25.9503      2.00000
     27     -25.8059      2.00000
     28     -25.8005      2.00000
     29     -25.7889      2.00000
     30     -25.7561      2.00000
     31     -25.7264      2.00000
     32     -25.7124      2.00000
     33     -25.6717      2.00000
     34     -25.6208      2.00000
     35     -25.5991      2.00000
     36     -25.1032      2.00000
     37     -25.0864      2.00000
     38     -25.0463      2.00000
     39     -25.0335      2.00000
     40     -25.0251      2.00000
     41     -25.0167      2.00000
     42     -25.0057      2.00000
     43     -25.0011      2.00000
     44     -24.9883      2.00000
     45     -24.9636      2.00000
     46     -24.9502      2.00000
     47     -24.9303      2.00000
     48     -24.9208      2.00000
     49     -24.8948      2.00000
     50     -24.8888      2.00000
     51     -21.9572      2.00000
     52     -21.7004      2.00000
     53     -21.6944      2.00000
     54     -21.5139      2.00000
     55     -21.5071      2.00000
     56     -21.4964      2.00000
     57     -21.4621      2.00000
     58     -21.4497      2.00000
     59     -21.2681      2.00000
     60       3.3200      2.00000
     61       3.9178      2.00000
     62       4.1039      2.00000
     63       4.4377      2.00000
     64       4.6257      2.00000
     65       4.8305      2.00000
     66       5.1760      2.00000
     67       5.6310      2.00000
     68       6.0468      2.00000
     69       6.0963      2.00000
     70       6.1184      2.00000
     71       6.1728      2.00000
     72       6.2100      2.00000
     73       6.2881      2.00000
     74       6.2965      2.00000
     75       6.3669      2.00000
     76       6.4069      2.00000
     77       6.4881      2.00000
     78       6.5466      2.00000
     79       6.5576      2.00000
     80       6.8771      2.00000
     81       6.9087      2.00000
     82       6.9604      2.00000
     83       7.0064      2.00000
     84       7.0522      2.00000
     85       7.0767      2.00000
     86       7.1161      2.00000
     87       7.1267      2.00000
     88       7.1679      2.00000
     89       7.1956      2.00000
     90       7.2119      2.00000
     91       7.2321      2.00000
     92       7.2860      2.00000
     93       7.3060      2.00000
     94       7.3159      2.00000
     95       7.3747      2.00000
     96       7.4092      2.00000
     97       7.4467      2.00000
     98       7.4505      2.00000
     99       7.4665      2.00000
    100       7.5249      2.00000
    101       7.5746      2.00000
    102       7.6497      2.00000
    103       7.6911      2.00000
    104       7.7232      2.00000
    105       7.7555      2.00000
    106       7.7831      2.00000
    107       8.1756      2.00000
    108      10.7689      0.00000
    109      10.8415      0.00000
    110      11.0527      0.00000
    111      11.1060      0.00000
    112      11.1447      0.00000
    113      11.2099      0.00000
    114      11.2612      0.00000
    115      11.3806      0.00000
    116      11.4942      0.00000
    117      11.5608      0.00000
    118      11.6138      0.00000
    119      11.6443      0.00000
    120      11.6876      0.00000
    121      11.7895      0.00000
    122      11.7984      0.00000
    123      11.8271      0.00000
    124      11.9272      0.00000

 k-point    39 :      -0.4000   -0.4000    0.4000
  band No.  band energies     occupation 
      1     -64.8664      2.00000
      2     -64.7012      2.00000
      3     -64.6579      2.00000
      4     -64.6570      2.00000
      5     -51.8296      2.00000
      6     -51.5766      2.00000
      7     -51.5745      2.00000
      8     -51.5350      2.00000
      9     -45.6138      2.00000
     10     -45.4045      2.00000
     11     -45.3708      2.00000
     12     -29.1798      2.00000
     13     -29.1749      2.00000
     14     -29.0852      2.00000
     15     -28.9404      2.00000
     16     -28.9402      2.00000
     17     -28.8983      2.00000
     18     -28.8957      2.00000
     19     -28.8807      2.00000
     20     -28.8695      2.00000
     21     -28.8474      2.00000
     22     -28.7951      2.00000
     23     -28.7815      2.00000
     24     -26.0232      2.00000
     25     -26.0226      2.00000
     26     -25.9501      2.00000
     27     -25.8171      2.00000
     28     -25.7917      2.00000
     29     -25.7725      2.00000
     30     -25.7610      2.00000
     31     -25.7323      2.00000
     32     -25.7133      2.00000
     33     -25.6755      2.00000
     34     -25.6131      2.00000
     35     -25.6057      2.00000
     36     -25.0935      2.00000
     37     -25.0899      2.00000
     38     -25.0503      2.00000
     39     -25.0378      2.00000
     40     -25.0222      2.00000
     41     -25.0177      2.00000
     42     -25.0141      2.00000
     43     -24.9965      2.00000
     44     -24.9862      2.00000
     45     -24.9567      2.00000
     46     -24.9536      2.00000
     47     -24.9236      2.00000
     48     -24.9194      2.00000
     49     -24.9130      2.00000
     50     -24.8799      2.00000
     51     -21.9572      2.00000
     52     -21.7006      2.00000
     53     -21.6941      2.00000
     54     -21.5136      2.00000
     55     -21.5003      2.00000
     56     -21.4978      2.00000
     57     -21.4637      2.00000
     58     -21.4536      2.00000
     59     -21.2681      2.00000
     60       3.3283      2.00000
     61       3.8624      2.00000
     62       4.1610      2.00000
     63       4.4220      2.00000
     64       4.7260      2.00000
     65       4.7539      2.00000
     66       5.1264      2.00000
     67       5.6682      2.00000
     68       6.0021      2.00000
     69       6.0523      2.00000
     70       6.1476      2.00000
     71       6.1973      2.00000
     72       6.2091      2.00000
     73       6.3266      2.00000
     74       6.3459      2.00000
     75       6.3871      2.00000
     76       6.4190      2.00000
     77       6.4728      2.00000
     78       6.5041      2.00000
     79       6.5256      2.00000
     80       6.8371      2.00000
     81       6.8859      2.00000
     82       6.9903      2.00000
     83       6.9903      2.00000
     84       7.0076      2.00000
     85       7.1173      2.00000
     86       7.1229      2.00000
     87       7.1358      2.00000
     88       7.1803      2.00000
     89       7.1886      2.00000
     90       7.2420      2.00000
     91       7.2598      2.00000
     92       7.2839      2.00000
     93       7.3351      2.00000
     94       7.3480      2.00000
     95       7.3757      2.00000
     96       7.4003      2.00000
     97       7.4033      2.00000
     98       7.4303      2.00000
     99       7.4537      2.00000
    100       7.5032      2.00000
    101       7.5414      2.00000
    102       7.6716      2.00000
    103       7.7275      2.00000
    104       7.7295      2.00000
    105       7.7539      2.00000
    106       7.8225      2.00000
    107       8.1313      2.00000
    108      10.8032      0.00000
    109      10.8398      0.00000
    110      11.0489      0.00000
    111      11.0855      0.00000
    112      11.1418      0.00000
    113      11.2532      0.00000
    114      11.3043      0.00000
    115      11.4250      0.00000
    116      11.4287      0.00000
    117      11.4586      0.00000
    118      11.5594      0.00000
    119      11.6169      0.00000
    120      11.7426      0.00000
    121      11.7571      0.00000
    122      11.8168      0.00000
    123      11.8694      0.00000
    124      12.0344      0.00000


--------------------------------------------------------------------------------------------------------


 soft charge-density along one line, spin component           1
         0         1         2         3         4         5         6         7         8         9
 total charge-density along one line
 
 pseudopotential strength for first ion, spin component:           1
  5.837 -20.544  -0.000   0.002  -0.000   0.000  -0.005   0.000
-20.544   9.434  -0.000   0.003  -0.000  -0.000  -0.000  -0.000
 -0.000  -0.000  -9.890  -0.002  -0.004   6.174   0.002   0.004
  0.002   0.003  -0.002  -9.892  -0.002   0.002   6.176   0.002
 -0.000  -0.000  -0.004  -0.002  -9.890   0.004   0.002   6.174
  0.000  -0.000   6.174   0.002   0.004   7.832  -0.001  -0.003
 -0.005  -0.000   0.002   6.176   0.002  -0.001   7.830  -0.001
  0.000  -0.000   0.004   0.002   6.174  -0.003  -0.001   7.832
 -0.003  -0.001   0.000   0.000   0.000   0.000  -0.001   0.000
 -0.001  -0.001   0.002   0.000   0.000  -0.003   0.000  -0.001
 -0.001  -0.000   0.000   0.002   0.000  -0.000  -0.002  -0.000
 -0.001  -0.001   0.000   0.000   0.002  -0.001   0.000  -0.003
  0.000   0.000   0.000   0.000  -0.000  -0.000  -0.000   0.000
 -0.003  -0.001   0.000   0.000   0.000   0.000  -0.001   0.000
 -0.002  -0.001   0.002   0.000   0.000  -0.003   0.000  -0.001
 -0.001  -0.000   0.000   0.002   0.000  -0.000  -0.003  -0.000
 -0.002  -0.001   0.000   0.000   0.002  -0.001   0.000  -0.003
  0.000   0.000   0.000   0.000  -0.000  -0.000  -0.000   0.000
 total augmentation occupancy for first ion, spin component:           1
  1.995  -0.046   0.000  -0.000   0.000   0.000  -0.000   0.000  -0.009  -0.002  -0.002  -0.002   0.000   0.008   0.002   0.002
 -0.046   1.289   0.000  -0.001   0.000  -0.000  -0.002  -0.000  -0.037  -0.019  -0.009  -0.019   0.000   0.018   0.015   0.001
  0.000   0.000   1.996  -0.000   0.000  -0.028   0.000  -0.001   0.000  -0.006  -0.000  -0.008  -0.000   0.000   0.004   0.000
 -0.000  -0.001  -0.000   1.996  -0.000   0.000  -0.029   0.000  -0.008   0.000   0.003   0.000   0.000   0.005   0.000  -0.002
  0.000   0.000   0.000  -0.000   1.996  -0.001   0.000  -0.028   0.000  -0.008  -0.000  -0.006   0.000   0.000   0.005   0.000
  0.000  -0.000  -0.028   0.000  -0.001   0.067  -0.001   0.001  -0.000   0.002   0.000   0.008   0.000  -0.000  -0.002  -0.000
 -0.000  -0.002   0.000  -0.029   0.000  -0.001   0.067  -0.001   0.008  -0.000  -0.009  -0.000   0.000  -0.005  -0.000   0.004
  0.000  -0.000  -0.001   0.000  -0.028   0.001  -0.001   0.067  -0.000   0.008   0.000   0.002  -0.000  -0.000  -0.005  -0.000
 -0.009  -0.037   0.000  -0.008   0.000  -0.000   0.008  -0.000   3.491  -0.084   0.062  -0.084   0.000  -1.486   0.045  -0.029
 -0.002  -0.019  -0.006   0.000  -0.008   0.002  -0.000   0.008  -0.084   3.499  -0.008  -0.090   0.014   0.045  -1.490   0.004
 -0.002  -0.009  -0.000   0.003  -0.000   0.000  -0.009   0.000   0.062  -0.008   2.719  -0.008   0.000  -0.028   0.004  -1.250
 -0.002  -0.019  -0.008   0.000  -0.006   0.008  -0.000   0.002  -0.084  -0.090  -0.008   3.499  -0.014   0.045   0.038   0.004
  0.000   0.000  -0.000   0.000   0.000   0.000   0.000  -0.000   0.000   0.014   0.000  -0.014   2.754   0.000  -0.007   0.000
  0.008   0.018   0.000   0.005   0.000  -0.000  -0.005  -0.000  -1.486   0.045  -0.028   0.045   0.000   0.645  -0.024   0.013
  0.002   0.015   0.004   0.000   0.005  -0.002  -0.000  -0.005   0.045  -1.490   0.004   0.038  -0.007  -0.024   0.646  -0.002
  0.002   0.001   0.000  -0.002   0.000  -0.000   0.004  -0.000  -0.029   0.004  -1.250   0.004   0.000   0.013  -0.002   0.582
  0.002   0.015   0.005   0.000   0.004  -0.005  -0.000  -0.002   0.045   0.038   0.004  -1.490   0.007  -0.024  -0.017  -0.002
  0.000   0.000   0.000   0.000  -0.000  -0.000   0.000   0.000   0.000  -0.008   0.000   0.008  -1.254   0.000   0.004   0.000


------------------------ aborting loop because EDIFF is reached ----------------------------------------


    CHARGE:  cpu time      0.0582: real time      0.0584
    FORLOC:  cpu time      0.0005: real time      0.0005
    FORNL :  cpu time      0.4970: real time      0.4987
    STRESS:  cpu time      0.6312: real time      0.6336
    FORCOR:  cpu time      0.0048: real time      0.0048
    FORHAR:  cpu time      0.0015: real time      0.0016
    MIXING:  cpu time      0.0005: real time      0.0005
    OFIELD:  cpu time      0.0000: real time      0.0000

  FORCE on cell =-STRESS in cart. coord.  units (eV):
  Direction    XX          YY          ZZ          XY          YZ          ZX
  --------------------------------------------------------------------------------------
  Alpha Z  1877.79436  1877.79436  1877.79436
  Ewald   -7078.93793 -7078.93793 -7066.45644   -16.86146    -4.21537    -4.21537
  Hartree  1196.35761  1196.35761  1207.53160   -15.21916    -4.19937    -4.19937
  E(xc)    -942.97383  -942.97383  -942.99649     0.02536     0.01338     0.01338
  Local    1650.00671  1650.00671  1626.59636    30.51077     8.01718     8.01718
  n-local  -392.31411  -392.95698  -391.58747     1.00372    -0.23108    -0.08789
  augment   564.03143   564.03143   563.97475     0.34116     0.12702     0.12702
  Kinetic  3104.68392  3097.64499  3100.23623    -0.28994    -2.03356     2.44626
  Fock        0.00000     0.00000     0.00000     0.00000     0.00000     0.00000
  -------------------------------------------------------------------------------------
  Total     -25.19273   -25.19273   -24.90711    -0.49037    -0.21045    -0.21045
  in kB    -141.67988  -141.67988  -140.07360    -2.75774    -1.18356    -1.18356
  external pressure =     -141.14 kB  Pullay stress =        0.00 kB


 VOLUME and BASIS-vectors are now :
 -----------------------------------------------------------------------------
  energy-cutoff  :      250.00
  volume of cell :      284.89
      direct lattice vectors                 reciprocal lattice vectors
     6.580000000  0.000000000  0.000000000     0.151975684  0.000000000  0.000000000
     0.000000000  6.580000000  0.000000000     0.000000000  0.151975684  0.000000000
     0.000000000  0.000000000  6.580000000     0.000000000  0.000000000  0.151975684

  length of vectors
     6.580000000  6.580000000  6.580000000     0.151975684  0.151975684  0.151975684


 FORCES acting on ions
    electron-ion (+dipol)            ewald-force                    non-local-force                 convergence-correction
 -----------------------------------------------------------------------------------------------
   -.204E+02 -.204E+02 0.413E+02   0.204E+02 0.204E+02 -.408E+02   0.138E-01 0.138E-01 -.730E-01   0.937E-04 0.937E-04 -.369E-04
   0.204E+02 0.204E+02 -.413E+02   -.204E+02 -.204E+02 0.408E+02   -.149E-01 -.149E-01 0.642E-01   -.575E-04 -.575E-04 0.107E-04
   0.178E-01 0.178E-01 -.481E-01   0.114E-12 0.568E-13 0.000E+00   -.423E-01 -.423E-01 0.156E+00   0.261E-03 0.261E-03 -.460E-04
   0.220E+02 -.220E+02 0.443E+02   -.220E+02 0.220E+02 -.439E+02   -.286E-01 0.229E-01 -.149E-01   -.981E-04 0.107E-03 -.389E-04
   -.220E+02 0.220E+02 0.443E+02   0.220E+02 -.220E+02 -.439E+02   0.229E-01 -.286E-01 -.149E-01   0.107E-03 -.981E-04 -.389E-04
   -.540E-01 -.540E-01 0.168E+00   -.568E-13 -.284E-13 -.568E-13   0.374E-01 0.374E-01 -.128E+00   -.260E-03 -.260E-03 -.632E-04
   0.220E+02 0.220E+02 0.443E+02   -.220E+02 -.220E+02 -.439E+02   -.229E-01 -.229E-01 0.143E-02   -.105E-03 -.105E-03 -.224E-04
   0.595E-02 0.595E-02 0.159E-01   -.426E-13 -.568E-13 0.000E+00   0.188E-01 0.188E-01 0.856E-01   -.197E-03 -.197E-03 0.505E-04
   0.137E-01 -.680E-02 -.364E-01   -.284E-13 0.284E-13 -.142E-13   0.835E-02 -.138E-01 0.961E-01   -.214E-03 0.206E-03 0.204E-04
   0.268E-01 -.330E-01 -.244E-01   -.284E-13 -.284E-13 -.284E-13   0.160E-01 -.110E-01 -.879E-01   -.209E-03 0.211E-03 0.609E-05
   -.680E-02 0.137E-01 -.364E-01   -.284E-13 0.000E+00 -.284E-13   -.138E-01 0.835E-02 0.961E-01   0.206E-03 -.214E-03 0.204E-04
   -.330E-01 0.268E-01 -.244E-01   -.426E-13 0.000E+00 -.284E-13   -.110E-01 0.160E-01 -.879E-01   0.211E-03 -.209E-03 0.609E-05
   0.132E-01 0.132E-01 0.269E-01   0.000E+00 0.568E-13 -.284E-13   0.220E-02 0.220E-02 0.102E-01   0.266E-03 0.266E-03 0.867E-04
   -.220E+02 0.220E+02 -.443E+02   0.220E+02 -.220E+02 0.439E+02   0.172E-01 -.923E-02 -.545E-01   0.637E-04 -.598E-04 0.258E-04
   0.220E+02 -.220E+02 -.443E+02   -.220E+02 0.220E+02 0.439E+02   -.923E-02 0.172E-01 -.545E-01   -.598E-04 0.637E-04 0.258E-04
   -.220E+02 -.220E+02 -.442E+02   0.220E+02 0.220E+02 0.439E+02   0.761E-02 0.761E-02 -.103E+00   0.663E-04 0.663E-04 0.379E-04
 -----------------------------------------------------------------------------------------------
   -.161E-02 -.161E-02 0.110E+00   0.533E-13 -.107E-13 -.171E-12   0.153E-02 0.153E-02 -.110E+00   0.732E-04 0.732E-04 0.441E-04
 
 
 POSITION                                       TOTAL-FORCE (eV/Angst)
 -----------------------------------------------------------------------------------
      4.93500      4.93500      4.93500        -0.023197     -0.023197      0.458397
      1.64500      1.64500      1.64500         0.024553      0.024553     -0.466008
      3.29000      3.29000      3.29000        -0.024231     -0.024231      0.107474
      1.64500      4.93500      4.93500         0.015129     -0.017903      0.323390
      4.93500      1.64500      4.93500        -0.017903      0.015129      0.323390
      0.00000      0.00000      0.00000        -0.016884     -0.016884      0.039763
      1.64500      1.64500      4.93500         0.025987      0.025987      0.348107
      0.00000      0.00000      3.29000         0.024589      0.024589      0.101634
      0.00000      3.29000      3.29000         0.021813     -0.020386      0.059694
      0.00000      3.29000      0.00000         0.042579     -0.043785     -0.112323
      3.29000      0.00000      3.29000        -0.020386      0.021813      0.059694
      3.29000      0.00000      0.00000        -0.043785      0.042579     -0.112323
      3.29000      3.29000      0.00000         0.015696      0.015696      0.037248
      4.93500      1.64500      1.64500        -0.013592      0.011013     -0.399664
      1.64500      4.93500      1.64500         0.011013     -0.013592     -0.399664
      4.93500      4.93500      1.64500        -0.021382     -0.021382     -0.368809
 -----------------------------------------------------------------------------------
    total drift:                                0.000002      0.000002     -0.000009


--------------------------------------------------------------------------------------------------------



  FREE ENERGIE OF THE ION-ELECTRON SYSTEM (eV)
  ---------------------------------------------------
  free  energy   TOTEN  =      -186.24640527 eV

  energy  without entropy=     -186.24425039  energy(sigma->0) =     -186.24532783
 


--------------------------------------------------------------------------------------------------------


    POTLOK:  cpu time      0.0065: real time      0.0065


--------------------------------------------------------------------------------------------------------


     LOOP+:  cpu time     51.9089: real time     56.4808
    4ORBIT:  cpu time      0.0000: real time      0.0000

 total amount of memory used by VASP MPI-rank0    41692. kBytes
=======================================================================

   base      :      30000. kBytes
   nonl-proj :       5180. kBytes
   fftplans  :        456. kBytes
   grid      :        919. kBytes
   one-center:         31. kBytes
   wavefun   :       5106. kBytes
 
  
  
 General timing and accounting informations for this job:
 ========================================================
  
                  Total CPU time used (sec):       54.408
                            User time (sec):       53.576
                          System time (sec):        0.832
                         Elapsed time (sec):       69.763
  
                   Maximum memory used (kb):       82132.
                   Average memory used (kb):          N/A
  
                          Minor page faults:         7926
                          Major page faults:            0
                 Voluntary context switches:          209
